13500
Time=99999.99999996 pbc="T T T" Lattice="49.25153526 0.00000000 0.00000000 0.00000000 49.25153526 0.00000000 0.00000000 0.00000000 98.50307052" energy=-102676.62562704 virial="-4797.66481580 63.97698736 284.55089259 63.97698736 -4751.52384237 -404.08307090 284.55089259 -404.08307090 -2747.96232165" stress="-0.00298932 0.00026773 0.00119077 0.00026773 -0.00279623 -0.00169099 0.00119077 -0.00169099 0.00558817" Properties=species:S:1:pos:R:3
W 49.14299610 0.54035484 0.66277334
W 1.83234202 2.07355898 2.85498955
W 49.20943255 0.91561178 3.96406014
W 1.62792815 1.67431034 5.88597674
W 0.07334127 0.38288530 7.33250155
W 1.92290865 2.24343676 8.77903418
W 0.08115016 49.17042191 10.10209462
W 1.62932536 2.11908457 11.88993075
W 0.03478556 0.06855503 13.14215045
W 1.57666117 2.21911581 15.29479725
W 49.12855715 0.41321379 16.72438587
W 1.51388561 2.23570897 18.09534250
W 48.96439873 0.39487373 19.80244274
W 1.39076084 2.30079422 21.09068193
W 0.23025121 0.04259874 22.92049153
W 1.91853564 2.37146032 23.94986532
W 49.10850442 0.41709451 26.13780483
W 1.78496408 1.70689104 27.88860934
W 0.05167588 0.02012787 29.45814450
W 1.69165914 2.00877169 30.87412218
W 0.10784362 0.03404940 32.39260322
W 1.58037036 1.65853689 34.10700086
W 49.08261462 0.17941550 35.82705108
W 1.45653169 2.00897007 37.33462848
W 0.21911787 0.08560135 39.10281597
W 1.58050589 1.97675829 40.65224849
W 0.00601456 49.17865722 42.30896414
W 1.65474000 1.70774131 43.93844147
W 49.07206156 0.04793857 45.56883001
W 1.26551856 1.68580645 46.93059627
W 1.67988359 48.17799949 50.24877172
W 48.97559316 22.45981304 65.23320040
W 4.10229000 13.63379738 75.09575381
W 14.02305998 27.31383471 73.65844562
W 44.97976722 9.88668668 61.02739737
W 4.79905894 8.30981615 50.29341610
W 45.95656300 38.82090439 82.17758217
W 33.88171454 46.96945806 65.37734933
W 8.38812709 21.26894779 63.88831243
W 13.09904828 25.33076397 69.84838807
W 25.50982927 9.11687881 84.39118499
W 11.50634343 47.88692544 91.15117075
W 28.45926326 1.93364397 97.46428304
W 21.35288477 30.92655046 90.54403211
W 46.02443626 26.61679331 95.92593324
W 18.24362304 38.16434807 53.33237809
W 26.47331826 39.59791439 92.52758878
W 33.58334885 3.40003650 85.94008561
W 19.44664892 42.88613863 58.19417238
W 29.74125086 3.57033725 89.25784121
W 33.15898816 28.46516144 83.44487486
W 48.03169824 3.14626482 78.54373715
W 33.55509086 39.16861998 79.39506517
W 37.24418787 44.12594815 69.05894830
W 20.06114321 29.48140927 95.82852054
W 10.41228190 10.26947362 65.49281566
W 33.68874716 7.35438082 66.31045736
W 13.15616168 10.43261090 95.94587886
W 2.34368871 43.89979902 79.59105795
W 1.72095629 2.03378355 97.85382213
W 48.83382792 3.56279866 0.69842352
W 1.76018734 5.02613305 2.09542929
W 49.15528230 4.07343048 4.04156910
W 1.59190134 5.45121375 5.58970797
W 0.14679043 3.48850165 7.14964475
W 1.79990237 4.98536701 8.82992054
W 0.26241707 3.54927716 10.47917074
W 1.85992250 5.41596799 12.08160736
W 49.20437237 3.50944322 13.78073345
W 1.38062381 5.37939223 15.12216977
W 49.11339861 3.49949334 16.72235061
W 1.18036819 5.07908671 18.05904353
W 48.85854655 3.45933335 19.82053702
W 1.09632630 5.25167937 21.47803539
W 48.88308773 3.69377114 23.07433388
W 1.43388236 5.08043677 24.41308809
W 49.03814834 3.19303718 26.29756020
W 1.65250875 5.10756759 27.85264633
W 49.25382390 3.30515401 29.62110672
W 1.30965682 5.21794453 31.21927512
W 0.24302492 3.30052829 32.61106426
W 1.69192901 5.01583333 34.09544738
W 49.23409539 3.68952553 35.74557970
W 1.82069666 5.08447331 37.44759644
W 0.06572761 3.52583202 39.17230883
W 1.41000261 5.26230265 40.87701203
W 0.22300491 3.53606313 42.23994551
W 1.46497154 4.83367586 44.02927955
W 48.82667532 2.91461584 45.28373514
W 1.33255629 5.18009707 47.04140529
W 35.21927096 31.37057486 64.65706028
W 47.60812654 28.28262040 53.51560181
W 47.42709303 21.54917461 90.90344586
W 14.32363096 6.83523237 66.70712434
W 34.36754531 32.05653834 75.91478322
W 46.06273447 0.41147887 48.64708863
W 25.89082053 37.22204213 58.24700139
W 39.59292196 30.01187033 95.52940168
W 21.27152571 5.36905355 63.98466526
W 1.27689001 35.15519105 50.38314185
W 26.31707236 36.71909376 67.15834075
W 12.59543094 32.43918243 68.81688604
W 22.99977291 46.77165491 90.22199905
W 37.96551781 41.29918905 57.59576112
W 16.71418220 10.10478696 57.97141290
W 17.90903362 5.26577863 56.48298997
W 7.85891717 42.17375993 67.79887515
W 20.20630598 43.24078449 74.77118380
W 41.97852462 28.76854190 86.19510035
W 27.72375227 48.11627530 59.96329912
W 9.49664466 16.76484106 51.82762048
W 29.06009380 29.96642639 52.09556602
W 4.05190552 38.44693085 82.56337204
W 2.69989394 10.16183477 79.64887556
W 42.49527950 17.21992134 70.46960884
W 12.03055590 30.32227623 51.90118835
W 9.24824475 30.01324884 52.08901714
W 34.68385647 44.31247987 87.94711411
W 11.29851818 31.65759203 81.83666488
W 47.65698396 8.47187303 94.20670184
W 0.44705702 7.16319889 0.24525897
W 1.61873879 8.51026913 2.17016638
W 49.12483909 6.68866095 4.15713185
W 1.48843260 8.73313478 5.41050636
W 0.03795581 7.08100338 7.20978325
W 1.65233426 8.71042423 8.59287151
W 0.16921191 6.74353093 10.18729893
W 1.53799707 8.82312707 11.67439244
W 49.14876220 7.27522134 13.42573454
W 1.29756081 8.30970220 15.03252198
W 48.90906961 7.06888441 16.77476467
W 1.61985242 8.82474395 17.92967136
W 0.06239249 7.40821243 19.35197741
W 1.22327177 8.37265535 21.50885330
W 48.67577801 7.13240544 22.86738264
W 1.53003837 8.44279527 24.48095016
W 0.16884324 6.60357674 26.04040167
W 1.64279534 8.58204889 27.57596492
W 49.13491736 6.83489546 29.48202395
W 1.74106107 8.11029831 30.91603715
W 49.19878327 6.72708047 32.62693800
W 1.87227698 8.30696507 33.89585414
W 0.04492837 6.77736273 35.87742760
W 1.53576778 8.10681730 37.53175351
W 48.93435538 6.63358093 38.91809855
W 1.26511375 8.19913836 40.38271141
W 49.07672751 6.72388134 42.45314009
W 1.63311007 8.21625028 43.90239162
W 48.93273643 6.61625393 45.62388658
W 1.47300784 8.00275815 47.13587510
W 3.26426913 10.21515322 58.49116806
W 22.15345323 11.91051444 59.79332242
W 27.88211139 41.28376617 53.23854058
W 19.99342793 23.59128190 58.54687937
W 24.16743029 47.83160372 56.65428026
W 9.75270424 16.64550878 48.41590951
W 12.98689614 16.56819404 55.68996796
W 6.84313328 14.68107837 61.74750910
W 26.32429747 36.31102756 48.33924755
W 9.59919407 47.96699651 83.68139113
W 26.24188567 29.93731025 90.02765998
W 26.70150895 19.41963966 91.65472376
W 8.33125880 0.33943532 62.61777034
W 13.05058158 30.20550534 80.79720668
W 47.24237404 12.10111777 97.59122543
W 26.05577304 11.50440732 85.47264733
W 15.00796055 0.92720380 74.22703353
W 27.95295604 47.41115220 86.54215954
W 1.22866498 8.31619322 50.63179842
W 19.21728654 33.77396041 61.55699432
W 13.18940735 15.53399072 68.04672260
W 29.96047526 29.22136797 92.47786660
W 44.56741269 35.16576352 84.58173013
W 23.61535076 38.43540811 62.60441219
W 21.89071949 8.69550185 80.23187055
W 9.87112508 29.92510045 93.26262825
W 34.51681831 35.57301390 85.85791405
W 10.99359346 44.30384683 50.04096854
W 2.55334599 17.72336599 73.06066405
W 44.45066372 18.71043981 84.17208842
W 49.12205494 10.49028602 0.34718571
W 1.62738505 11.65648258 2.15557482
W 0.16799844 10.36898246 3.81762548
W 2.01041474 12.18775273 5.58215627
W 49.24902878 10.18313308 7.00159913
W 1.47708213 11.87595080 8.52353140
W 48.92742688 10.47013826 10.05783210
W 1.71046906 11.82246425 11.71193962
W 0.04822078 10.47837970 13.27576710
W 1.57344342 11.56302639 14.84818049
W 0.07923046 10.41904555 16.44033450
W 1.44063966 11.70221692 18.27313737
W 49.21352201 9.98780829 19.47997944
W 1.55729385 11.92936271 21.43221612
W 49.09766783 10.00448630 22.87559371
W 1.37626220 11.62204583 24.46212616
W 49.23634907 9.77726629 26.11455957
W 1.35393999 11.62798267 27.76476007
W 0.22605072 9.93776810 29.56068760
W 1.44617831 11.53586638 30.82438435
W 49.07385877 9.93229246 32.32017026
W 1.11717726 11.48466388 33.88887251
W -0.00388388 10.23703445 35.90910205
W 1.55740517 11.67265644 37.48588328
W 49.06484618 10.23436531 39.21938305
W 1.67338345 11.71113602 40.77545508
W 49.03819627 10.16664233 42.41090080
W 1.80509013 11.83923284 43.56829894
W 49.15547708 9.99087419 45.27791294
W 1.31829739 11.56987053 47.14220397
W 45.28667744 15.27549500 71.03053228
W 2.91819119 13.44767921 48.29954983
W 16.22979691 29.71397434 58.13441528
W 16.53707254 10.08795032 52.01079659
W 6.65967035 49.13092597 95.90524140
W 44.80453573 8.16376659 63.75303683
W 7.14757969 25.25767576 74.90140969
W 21.49315562 23.90193616 83.14141605
W 11.29852407 41.04089450 53.20547881
W 47.88820353 34.06968461 86.98918116
W 29.93087650 13.08687023 72.10775396
W 47.04509859 16.28130165 76.29192751
W 6.05611893 42.90904601 75.54528913
W 40.88267040 40.48807434 62.33897112
W 30.10527634 11.03223233 79.95718872
W 41.14449257 1.52989555 94.47363182
W 2.89232336 46.32227153 51.57424708
W 42.41194426 43.03323384 55.05393864
W 4.62116145 18.36926714 53.14466568
W 1.86577683 44.18160903 68.96325950
W 38.43770726 6.26224868 62.09434656
W 47.83783224 31.80530661 72.98459425
W 35.45860467 34.39027521 80.13515204
W 12.54323493 19.80193501 52.14107910
W 42.73172968 42.82857647 89.67444017
W 16.76725475 39.67284052 79.02967583
W 44.69719028 38.09642059 84.62424404
W 4.95907435 5.40648802 53.46276346
W 18.82972787 25.16022758 70.58806836
W 26.40180379 36.51167268 51.37813942
W 0.18608943 13.40864103 0.68232076
W 1.19594602 15.09430880 1.81621191
W 0.11499705 13.54714239 3.94450166
W 1.65952634 15.27127969 5.49767297
W 0.12048632 13.45955535 6.99577009
W 1.60422203 15.17169009 8.68881075
W 49.12313302 13.47929007 10.02972008
W 1.43060197 15.08778632 12.01766312
W 49.17875876 13.45442842 13.31304174
W 1.37129976 15.35415231 14.80788352
W 0.03027231 13.32129178 16.25658120
W 1.85734398 15.21283147 18.42130172
W 0.29297508 13.10917424 19.99052382
W 1.79054534 15.36542437 21.51115811
W 49.07003177 13.59987092 22.84860782
W 1.42883882 14.95569342 24.49603814
W 48.94326288 13.03614512 26.19697994
W 1.55570248 15.15735619 27.83619897
W 49.08548984 14.00690477 29.61258339
W 1.47899381 15.10632127 31.01303089
W 48.81302027 13.23302636 32.39592837
W 1.09865700 14.66922260 33.97028987
W 49.03050849 13.29835028 35.82794630
W 1.47555132 14.93749920 37.24276133
W 48.99298082 13.52968248 39.27199297
W 1.42624069 15.26465529 40.61505768
W 48.89947932 13.21933150 42.27249563
W 1.51077054 14.89607476 43.38370447
W 0.21718534 13.38636996 45.36566219
W 1.63550536 15.03704042 46.48220811
W 1.47261736 11.39865723 50.00541945
W 42.55160278 29.61797979 95.75715136
W 7.58405844 23.94026041 81.07284478
W 45.61589736 49.00740079 86.28653737
W 19.54121447 17.89829712 84.20985436
W 42.76541115 16.82017181 83.52720429
W 46.11779181 36.57227767 82.59154629
W 29.29388200 34.77485889 69.50237612
W 27.98497746 44.57487118 72.14427072
W 1.91504820 23.62202257 72.62470296
W 17.47833451 2.04928164 59.63897406
W 48.45059468 44.18797935 79.22989230
W 47.70930965 5.39582606 94.32610881
W 34.52327572 17.91484117 97.59237727
W 32.91599945 7.90882805 79.23290929
W 21.43287743 48.90224852 62.77763251
W 8.32970526 31.63619376 97.23981689
W 11.32712278 25.00825114 60.30947546
W 36.09548144 33.20840900 51.74690716
W 34.69444302 1.74990345 50.09455869
W 38.63714554 17.98178798 64.83051161
W 39.62352541 36.22708905 95.78051699
W 38.09834556 8.31049559 90.96581499
W 49.03590979 39.95233837 52.05448623
W 47.43040250 1.65691926 57.26873925
W 44.28604746 4.48250778 80.80262602
W 0.25943476 12.54754308 55.96456883
W 40.00644564 6.19112239 88.57799544
W 2.02329340 44.58886932 84.83992533
W 46.24148815 41.17421450 62.78052164
W 48.91510469 16.68663131 0.36095420
W 1.40658325 18.53862571 1.95015235
W 49.24965346 16.43312109 3.62476573
W 1.68321301 18.43086178 5.36802382
W 48.93614374 16.89794752 7.11072815
W 1.67507674 18.38544852 8.70789445
W 0.03727269 16.63648055 10.31074673
W 1.60522453 18.22560017 11.61749396
W 49.06841893 16.78637806 13.54654713
W 1.60010539 18.29497943 14.98913925
W 49.24921869 16.55470010 16.75897555
W 1.41731553 18.41366569 18.14069508
W 49.22367314 16.62653761 19.89819164
W 1.67639283 18.36401212 21.34928058
W 0.09678516 16.68195129 22.75236741
W 1.65364459 18.43921826 24.69821325
W 49.14733799 17.04436857 26.31243408
W 1.97058057 17.89047427 28.19332385
W 49.14939437 16.80245635 29.65768979
W 1.63886071 18.21800518 30.96940621
W 48.64410193 16.42443954 32.54353791
W 1.45312326 18.01797116 33.97799045
W 48.89978010 16.57860040 35.74209242
W 1.15243296 18.05125257 37.42761065
W 49.00266289 16.96346068 38.98041154
W 1.57254264 18.14613793 40.61635814
W 0.05587302 16.54776221 42.26000415
W 1.52877262 18.33465746 43.60157040
W 49.14978094 16.79562283 45.33915038
W 1.46715182 18.31897524 46.82466025
W 47.70135779 22.72908211 70.25286609
W 0.15639137 13.76549331 51.63602838
W 37.58974870 14.16172992 87.69989236
W 44.53227227 10.60037923 63.90525488
W 31.40062198 8.52569799 59.88692131
W 16.27186251 0.41583846 52.12970925
W 7.62252281 18.64630788 57.08452110
W 21.36296492 41.16758717 72.13167928
W 42.46210118 0.48289270 55.26572749
W 23.65960550 36.99603495 69.48301603
W 47.82245701 40.98245781 91.17484744
W 9.60527818 42.71405925 89.78693630
W 1.67985985 11.67184985 97.52594527
W 17.09347439 18.44714321 85.18837699
W 1.71483559 41.79630548 84.72864377
W 23.67330865 15.29979878 78.60931920
W 37.72555034 21.24510933 53.30414966
W 38.09113082 41.07018432 62.43303247
W 4.72241320 37.82954984 50.25653523
W 40.90000752 24.31779363 79.30953694
W 33.85511206 25.65712978 80.33771206
W 10.37572992 46.12975127 93.09554455
W 33.50002459 15.97836913 72.37731889
W 14.48116435 44.50357553 49.78331275
W 10.06100627 36.93786774 86.38572103
W 32.74825462 6.65233350 54.84520053
W 31.16903245 14.69465518 63.09190943
W 1.78232714 24.89283731 97.37680184
W 0.16592317 43.21407534 95.78795705
W 10.08464584 3.82737512 58.62988938
W 48.85446217 20.03550987 0.43896131
W 1.85768453 21.72836363 2.10620278
W 49.15000251 19.93735832 3.73723853
W 1.83908366 21.61115785 5.28255715
W 49.11633023 19.78332086 6.99281936
W 1.28045044 21.63828816 7.95731030
W 49.16305113 19.89122547 10.05871640
W 1.40867414 21.56330868 11.60637105
W 49.06979548 19.97880943 13.59953667
W 1.74416817 21.63188761 15.00491560
W 48.97034690 19.84525762 16.37582914
W 1.70466314 21.60070929 18.33422950
W 49.07616590 19.69308520 19.91375104
W 1.61060073 21.53280026 21.57013777
W 49.04151479 19.93289153 22.95007008
W 1.48722964 21.72707301 24.24803890
W 0.15833532 20.13822095 26.04852694
W 1.60005738 21.73556416 27.59909578
W 49.21074286 19.98484785 29.35789955
W 1.25057582 21.48734926 30.97581221
W 48.88672054 19.67555385 32.65458263
W 1.55733207 21.63210342 33.91848708
W 49.07731765 19.86169143 35.71120036
W 1.37011041 21.76294174 37.15486126
W 49.22303109 20.09069632 38.55573041
W 1.20588132 21.64400377 40.55016578
W 48.97812740 19.81056408 42.04399373
W 1.66035155 21.23987163 43.68737702
W 49.18443965 19.90921264 45.37175370
W 1.33301166 21.86428015 46.84248222
W 38.59401249 41.71740907 87.70107241
W 6.33541762 20.06736112 48.61674182
W 40.87649241 28.27275072 53.83223816
W 27.38541102 12.34053147 59.50404114
W 26.61873520 13.36569459 83.33390290
W 0.04169747 36.84021687 67.50655170
W 6.54798862 29.90199121 48.69308977
W 48.88921435 26.08374819 88.50181682
W 34.49032758 21.52531760 97.36594507
W 32.05997443 21.03132024 75.53410742
W 21.23292526 48.05965829 56.52857081
W 42.44571234 34.83453144 80.44187011
W 39.93340004 44.88201628 72.92976484
W 21.37563822 38.49957687 68.19196383
W 37.81240969 28.19281318 50.28334226
W 38.54285712 37.40370072 81.08404044
W 44.58118995 2.14194188 61.11787836
W 35.86031536 19.73124286 79.68923826
W 22.60366272 20.80224579 88.98416551
W 11.56701062 18.17294500 94.28812444
W 31.17817186 27.61179417 87.58461638
W 13.05432640 9.69498705 88.83186132
W 8.95101614 30.59137531 77.24450009
W 5.09038349 10.83081023 70.65017480
W 21.07981958 28.54074653 59.65404252
W 6.49515233 3.55317679 51.87704623
W 17.89957257 23.91779868 81.48178164
W 17.54099906 17.09296621 64.92277900
W 39.87163212 16.38430040 51.97449079
W 1.68850556 21.80946326 97.40605702
W 0.16603160 23.35778304 0.78063028
W 1.78737474 25.28445049 1.82367254
W 0.03278361 23.62151555 3.67781467
W 1.60474210 25.02837702 5.37174247
W 48.99006788 23.15020241 6.79770246
W 1.29205525 25.21819399 8.58090351
W 49.16055382 22.66305098 9.96343232
W 1.57129735 24.91988649 11.36799577
W 0.12640981 23.05904915 13.11373704
W 1.29369313 24.72645552 14.81518196
W 0.03867956 23.06303245 16.59661223
W 1.17321618 24.69203390 17.97415456
W 0.01518437 23.10028669 19.88707458
W 1.92857526 24.94323764 21.42974646
W 49.23631980 23.42351252 23.23845777
W 1.88551208 25.09378778 24.55531057
W 0.38232283 23.39101743 26.09542050
W 1.59168616 25.22870868 27.73826644
W 49.22102313 22.96883086 29.46825282
W 1.54247754 24.70705275 30.70457112
W 49.18733826 23.15429998 32.36557189
W 1.55210023 24.98720597 33.62635070
W 49.24116675 23.94588472 35.40661090
W 1.28218878 24.90650428 37.54430409
W 48.91063947 23.19028989 38.58811273
W 1.28752757 24.66302571 40.45276107
W 48.77614676 23.24903530 42.19168085
W 1.45817742 24.93603432 43.73039036
W 49.17035556 23.50773263 45.46003081
W 1.34343214 24.89844171 46.97088670
W 33.18944940 17.23284333 82.20583331
W 7.82034142 34.73782875 53.79332853
W 31.21631295 21.55283529 50.50829682
W 40.73998450 21.47528437 56.48733211
W 12.27400824 7.13742809 58.58633646
W 1.39169118 38.28491487 50.52125562
W 10.50209156 21.47749051 77.45347878
W 35.17839298 21.87333920 60.25120701
W 3.03783010 -0.00017256 95.36625386
W 3.29100370 6.97742016 48.52550624
W 10.83461176 38.18402195 76.19425577
W 8.34776792 28.26608454 94.25382655
W 31.00194586 21.69587249 88.35062519
W 26.03117108 26.82541594 71.68085315
W 6.38337891 22.12231599 75.61886688
W 25.99120504 16.97358457 90.39524932
W 4.92227903 15.08528951 97.08235157
W 6.46750482 17.18403400 48.69556163
W 21.37760028 38.20846070 94.37980772
W 45.56548055 3.35565559 85.78798625
W 8.29010918 11.87429413 93.95491667
W 44.22701450 18.47314148 60.26063733
W 14.84707907 5.99105374 69.56757521
W 41.16018046 9.32872089 70.98415937
W 33.92165847 9.22579602 88.54107124
W 15.05318359 37.68960123 90.96675224
W 25.27389181 29.94166111 70.65830684
W 14.26229548 24.97006078 53.94971375
W 33.22648719 35.46005557 65.04576270
W 0.35468684 42.45905208 61.61455509
W 48.97834854 26.52957490 0.33053800
W 1.70979223 28.14824004 1.99563433
W 0.28977937 26.63327338 3.38045372
W 1.68034915 28.07229949 5.16018503
W 49.10146981 26.80651737 6.71494364
W 1.43764960 27.78482943 8.80925718
W 48.71795047 26.26438075 9.95584202
W 1.47351414 27.81208236 11.75040664
W 49.11754618 26.32890176 13.41500915
W 1.66179405 28.34113386 15.34385248
W 48.88958283 26.52061941 16.72185934
W 1.52952629 28.34676274 18.25320403
W 49.25231662 26.63309851 19.54932181
W 1.77945200 28.09631273 21.35140683
W 49.14536617 26.76418056 23.11520062
W 1.58165164 28.12242690 24.46442112
W 0.05107233 26.59876888 26.00237273
W 1.54126690 27.91679666 27.30336301
W 49.23358234 26.47696268 29.60551912
W 1.91846902 28.60327800 31.01634892
W 0.34595554 27.44778012 32.62664636
W 1.76617910 28.57993794 34.41081523
W 0.42072471 26.65264616 35.68786513
W 1.46251956 28.11644165 37.55116107
W 49.23542910 26.37827776 39.27856436
W 1.19239381 28.02183121 41.08842124
W 49.08460079 26.23229711 42.24177540
W 0.98571805 28.43708053 44.05036212
W 49.08982581 26.73160479 45.39180664
W 1.41195004 28.05938710 46.88043145
W 33.06936756 28.92343450 68.23916693
W 29.21915797 16.93945708 55.16243803
W 49.07799628 0.06920712 48.80426858
W 23.74941150 19.73688195 59.09341735
W 31.38113476 40.49606707 62.83941839
W 44.81819803 8.57611579 57.21211915
W 7.70406936 22.26237014 78.72767927
W 3.96094236 22.55206557 74.26208014
W 42.61869128 16.85617342 96.00290576
W 19.65622663 39.64224692 92.65884873
W 17.58362708 2.33655072 90.49854829
W 49.23652938 6.91889522 95.71416434
W 3.08264377 45.99329446 58.37526550
W 21.00784486 48.05792516 53.60449193
W 37.26028540 36.91265716 84.81622077
W 9.60686235 11.68694422 75.94784873
W 42.67729599 5.41384891 76.68315951
W 44.47835227 34.58477639 97.47461447
W 20.55392975 17.59369454 74.90236682
W 37.96389361 44.69553018 97.51806152
W 11.13866093 34.78711534 53.79478916
W 15.44109605 8.37432985 79.40993858
W 3.11296070 46.09605319 48.70899224
W 27.93627433 2.03164648 90.96763485
W 1.61830706 48.03254618 90.81155789
W 27.72317848 24.73836809 94.21536358
W 8.70860748 41.08009513 87.27423610
W 31.34364496 18.86553201 56.84767555
W 41.17679934 14.82615026 90.65494015
W 4.60742952 18.38382016 57.15305697
W 49.15142850 29.89526925 0.78401019
W 1.51317644 31.36898724 2.47478808
W 49.25180124 29.53456151 3.76273699
W 1.31808925 31.18439073 5.62662382
W 49.22288844 29.71175243 7.00788096
W 1.44018634 31.35978227 8.94844525
W 48.96214859 29.39157585 10.36214452
W 1.53185511 31.22955989 11.82595187
W 48.91196762 29.91964506 13.39202095
W 1.51815568 30.96689959 15.09077392
W 49.00326409 29.74824889 16.94636389
W 1.91156485 31.22058766 18.15853816
W 0.26307714 29.81712623 20.15791215
W 1.88983849 31.33194532 21.48637670
W 0.18690941 29.76375925 22.98636812
W 1.97635433 31.53236553 24.27257350
W 0.41994521 30.16194054 26.02030873
W 1.75334954 31.42720234 27.84608639
W 0.14974812 29.74711749 29.19088123
W 1.34599755 31.93910619 30.55785987
W 0.04891576 30.19386032 32.91091519
W 1.41575646 31.85019849 34.49645250
W 48.79444170 30.03938546 36.15704628
W 1.36138943 31.69498940 37.48354051
W 0.02230982 29.98651063 39.20335114
W 1.16501179 31.42647148 40.81687188
W 48.78010158 30.04230162 42.24314638
W 1.11022173 31.53661387 43.72191470
W 48.99619586 29.56124817 45.72805870
W 1.13195054 31.37865533 47.27668041
W 3.96501105 12.19821690 77.62785000
W 12.54068065 47.57980181 78.40688829
W 43.94106705 41.81624688 50.14558728
W 8.68933867 38.67619143 60.50666266
W 29.13929678 29.67371225 48.67725962
W 9.96933935 16.96269336 58.62873207
W 37.40643078 32.04619862 75.67209257
W 46.38576623 32.51334580 77.47733715
W 6.45810568 46.34171037 51.96510263
W 14.47507005 41.21818343 62.73375442
W 38.96440543 0.37737432 52.49611809
W 12.55930874 49.18347122 52.14884342
W 16.24434267 46.55211766 52.08380420
W 32.91490256 43.21190155 48.62007744
W 23.91991602 39.49261368 85.65981879
W 24.64963972 41.44176253 50.17034152
W 22.87953754 3.36384295 92.25363935
W 39.33214670 48.41731432 77.31044931
W 10.97183524 15.94968008 75.93804866
W 8.44021103 25.85076332 69.15104281
W 39.51149516 36.66454475 58.37823851
W 30.08135461 30.49461061 80.16038612
W 15.29101140 32.21173239 85.29032215
W 1.56347321 7.88524722 83.14507658
W 39.74395028 1.88016450 68.09998293
W 28.91718877 10.83261112 64.16955677
W 16.74716371 3.60374960 86.51111241
W 29.14892717 46.62775565 65.52916374
W 44.77776987 45.77642894 72.20746204
W 34.70883300 5.21751118 53.48088791
W 0.31561073 33.10011113 0.51904033
W 1.63418806 34.47293937 2.20562878
W 48.92705446 32.93591471 4.34742775
W 1.45022817 34.62594011 5.77631195
W 49.13923511 32.95030553 7.35715151
W 1.81802236 34.78329265 8.46711748
W 0.05123579 33.19723726 10.07098573
W 1.38723764 34.85529841 11.50855950
W 49.01016401 33.14067018 13.31245709
W 1.52592078 34.22322946 15.34349288
W 49.17848149 32.72721263 16.66163503
W 1.67325913 34.65996350 17.82340319
W 0.17242835 33.18046050 19.62883050
W 1.94484071 34.48195572 21.34497658
W 49.11047694 32.70282113 22.68183664
W 1.86783723 34.85286231 24.29360224
W 0.39744958 33.43980817 26.05168625
W 1.74439998 34.61128878 27.74709953
W 0.12790644 33.01639522 28.94230325
W 1.59245032 34.94547199 31.15490574
W 0.21801686 33.14637624 32.37955510
W 1.56236210 34.75602641 34.31086956
W 49.07598318 33.16696218 35.71715682
W 1.49100531 34.72609935 37.60682165
W 49.18884507 33.25565282 38.91510569
W 1.61747260 34.74898043 40.79722330
W 48.96890426 33.22190711 41.91170851
W 1.21739902 34.37207677 43.94401845
W 49.20764862 33.24894578 45.85772505
W 1.26820745 34.87129947 47.26505492
W 45.77971464 29.91588593 49.24983598
W 22.70822316 46.63412180 58.53861354
W 24.47782462 44.47878862 50.23413530
W 42.58107895 39.70646531 48.66359068
W 23.43268400 0.28847483 95.79058078
W 9.66788124 23.16663548 48.71464288
W 39.71108614 48.19979228 82.54483073
W 32.94760180 4.28072584 74.44739536
W 36.16533920 13.71700382 61.48591687
W 15.11606752 8.70586116 87.43943464
W 19.73590667 6.96118112 67.71253293
W 18.50614302 41.32512194 94.08758601
W 44.18756380 41.67306113 53.35124854
W 3.30089981 19.88249444 89.23847255
W 23.34684592 23.44207745 87.93119583
W 41.21921405 30.29848195 81.77637174
W 24.91308394 10.42026106 77.01703429
W 28.13062598 12.76133151 80.40363105
W 4.73729744 38.26661416 94.66331860
W 42.72260032 3.76840825 48.67548575
W 47.57629857 47.90453155 97.64816221
W 9.22286049 48.62575257 74.23405710
W 28.79385857 13.86139484 77.60605762
W 11.48548623 44.25782032 97.71855836
W 19.93257080 32.43234297 92.11692525
W 31.12617323 48.12339881 90.78114496
W 13.02740214 32.17981666 78.87463434
W 0.34233755 19.71987766 55.49637341
W 27.85138924 14.99531106 53.36503636
W 11.56710853 34.95137405 87.35630179
W 0.20574411 36.31823319 0.34566373
W 1.34626407 37.92478041 2.19527080
W 49.13082952 36.15884738 3.89084314
W 1.35216955 37.98678444 5.32654771
W 0.01495438 36.49774015 7.14141053
W 1.59327869 38.12263745 8.71840294
W 49.04643289 36.57837780 10.15201360
W 1.75410544 37.88992296 11.45610316
W 0.20875526 36.51075277 13.23344118
W 1.97572916 37.71358032 15.17349237
W 0.01786295 36.24373684 16.49563685
W 1.60026813 37.84156657 17.94102799
W 0.18107279 36.27728491 19.39596398
W 1.71496247 37.83731326 21.11374110
W 0.22349535 36.49445727 22.65606381
W 1.96096083 38.05581673 24.22335228
W 0.17980773 36.39057423 25.94485837
W 1.56917520 37.82237431 27.66079921
W 0.15430684 36.47732403 29.41375524
W 1.34621899 38.23197746 30.96369647
W 0.02483773 36.34404269 32.66417550
W 1.61269169 38.00888443 34.15518347
W 49.15800408 36.40997741 35.87547743
W 1.74719122 38.00725468 37.69239408
W 48.98984734 36.46309475 39.12836423
W 1.50434798 37.80966658 40.93768506
W 49.13116364 36.58033431 42.12447544
W 1.31169391 38.42032636 43.89180572
W 48.68643532 36.49436985 45.60557269
W 1.22713281 38.40156952 47.14778119
W 19.08590599 3.79835651 64.19410056
W 11.73351658 18.27394370 97.33321586
W 8.46785438 41.42451188 94.66947165
W 45.79554643 33.29500625 48.84907401
W 21.12110549 1.87441438 53.36874737
W 24.37566339 19.05490264 56.86869511
W 8.05338414 44.19349419 56.50447837
W 39.02753195 5.39398149 70.18630646
W 47.94625646 38.07903548 97.49397332
W 1.28588782 8.40045170 80.64418163
W 10.00580480 29.91772040 89.66821444
W 26.00114476 16.80685766 55.31404160
W 12.73175341 7.61674609 86.48527815
W 42.05079616 7.92246733 75.86708417
W 32.36606143 37.58030799 62.45572526
W 22.86799148 0.40480390 48.56943401
W 19.76929677 6.79013799 78.55486712
W 34.90819617 6.75275294 82.85369533
W 10.39223060 31.60316437 85.44057024
W 28.36997090 34.54634447 57.02457986
W 34.61028362 18.55053179 53.54185996
W 28.78534330 19.87035708 84.83618097
W 19.19656461 22.78263247 83.67183226
W 29.56102969 14.06890797 60.72438409
W 1.24449647 21.93783981 94.06005068
W 41.98103113 6.11996782 83.79923122
W 17.08007718 49.09683245 80.22776926
W 31.13095131 27.57868958 90.66365560
W 1.85456102 34.89167104 97.67907242
W 6.84066654 30.16662758 89.30614016
W -0.00397977 39.99014985 0.63309845
W 1.49828625 41.35958037 2.39199380
W 48.97073004 39.40526461 3.98285149
W 1.27780350 41.24758254 5.48060165
W 48.79736117 39.83076469 7.13343821
W 1.66618270 41.68244847 8.36947233
W 0.30809228 39.96017408 10.24585628
W 1.84576994 41.69781097 11.74270866
W 0.17369629 39.96257961 13.08277327
W 1.55511262 41.15143064 14.94124876
W 0.22888950 39.64539321 16.40033566
W 1.84124793 41.60294068 17.69990420
W 0.43806744 39.53142571 19.74590979
W 1.82486853 41.39906432 20.95536752
W 0.17597808 39.81981624 22.80662656
W 1.59329347 41.52761368 24.35089969
W 49.10825886 39.69719115 25.91626946
W 1.54138543 41.51581895 28.15148919
W 49.13205902 39.66970268 29.25602714
W 1.51148791 40.97152927 31.19716728
W 49.23051755 39.68410878 32.60089181
W 1.56508301 41.25044624 34.24537847
W 0.31148477 39.68746125 36.03631765
W 1.60527375 41.25397517 37.44569064
W 0.10278604 39.64506518 39.01432162
W 1.38120844 41.31478380 40.55405385
W 48.88755581 39.81517815 41.82149763
W 1.38000571 41.24914730 44.08749845
W 49.04590305 40.20276285 45.61969514
W 1.70743426 41.35140290 46.94331810
W 45.33028516 42.98092241 48.56161787
W 30.20901746 45.49301632 71.11829357
W 27.86636583 15.06002877 56.55899650
W 29.76865883 19.91026795 51.87360683
W 31.34587711 33.53222314 60.40406756
W 34.66192199 25.11160076 60.43526176
W 31.70631058 24.26047970 61.13364547
W 2.84365087 32.41046033 55.04729164
W 38.18634083 21.65933838 56.26873163
W 28.42003977 14.58311971 93.98674090
W 2.36210088 15.84465252 66.06399200
W 45.26828518 9.92646474 85.58086380
W 15.51810598 8.79481284 62.70252882
W 44.12379046 21.69419152 97.58065844
W 9.41137591 46.49586964 48.77617438
W 44.51634996 2.16286890 50.07412699
W 24.24562456 39.58044034 67.44257378
W 17.92560471 8.42577932 90.68956296
W 43.17223378 47.42314974 75.18586870
W 34.91726588 8.63244128 94.23210403
W 9.67754945 10.34877453 48.90620559
W 27.81114269 44.45601799 97.06381789
W 19.71645211 6.57247443 92.87043143
W 34.87038105 6.37444333 71.78205662
W 45.82257732 29.60084050 55.14689933
W 34.77339548 0.38942561 67.13252447
W 36.35342170 4.51610084 69.97276040
W 32.73451802 32.68356414 89.35134265
W 31.75832000 47.08814113 76.38861416
W 1.90179369 41.53187185 97.78639136
W 49.12696965 42.96016532 0.77343229
W 1.40721811 44.79695630 2.36943437
W 0.06714437 42.97184383 3.89419829
W 1.66451623 45.07253054 5.64756567
W 49.24963844 42.97580863 6.96160311
W 1.77775379 44.64967392 8.73562076
W 0.15095478 43.00267364 10.33594219
W 1.22791593 44.65733875 12.08656638
W 48.94644308 43.08562521 13.66350479
W 1.79493263 45.21337859 15.55285242
W 0.12866718 42.99686323 16.51016067
W 1.17031105 44.86009586 18.41158584
W 49.10063243 42.90412883 19.86122901
W 1.65427017 44.53278408 20.84041937