13500
Time=99999.99999996 pbc="T T T" Lattice="49.40156498 0.00000000 0.00000000 0.00000000 49.40156498 0.00000000 0.00000000 0.00000000 98.80312996" energy=-101805.99802876 virial="-5001.58120590 65.99236600 -168.52887765 65.99236600 -5078.27230988 -265.16355686 -168.52887765 -265.16355686 -2977.23255391" stress="-0.00371149 0.00027367 -0.00069888 0.00027367 -0.00402952 -0.00109963 -0.00069888 -0.00109963 0.00468344" Properties=species:S:1:pos:R:3
W 45.66443032 48.80560335 0.27374829
W 48.61071828 2.74013192 3.89087843
W 48.98147009 49.18268184 3.69307972
W 1.75032862 1.16313343 5.51217906
W 49.18646963 48.72982457 6.88764169
W 1.76066391 0.88917531 8.63111013
W 0.17802608 49.01917433 10.29272365
W 1.90165693 1.39354393 11.82045802
W 49.22740218 49.26702305 13.25616890
W 1.83276682 1.33099874 15.11800327
W 49.22498072 49.12658876 17.08322172
W 1.48788845 1.37968702 18.16108704
W 49.28802218 49.09955552 19.95263565
W 1.87586849 1.34554152 21.18382595
W 49.23609857 48.86389191 23.11678271
W 1.59592302 1.38617474 24.53125630
W 0.09442533 49.26203793 26.13892070
W 1.72054263 1.17872389 28.01146080
W 0.09794024 48.86162518 29.42151976
W 1.71155513 1.26487066 31.32067013
W 0.14283912 49.10071851 32.71664755
W 1.67552894 1.36247276 34.56732686
W 49.10561463 49.14707695 35.87753856
W 1.65258318 1.04484189 37.45961356
W 0.02498016 49.17184674 39.19424623
W 1.56229627 1.09102137 40.85175823
W 49.09736661 49.06337777 42.13185196
W 1.57573806 1.30690866 43.91293471
W 0.15153519 48.84891627 45.72722426
W 1.90860627 0.98065357 47.50768084
W 0.65552494 49.30195671 49.48642231
W 1.05936232 10.92719557 55.02776855
W 16.00213737 15.54329703 55.28919486
W 12.95719532 29.31515089 76.84854918
W 7.77658359 22.25696753 62.45907629
W 1.46968364 7.93910420 53.28694557
W 48.27974535 4.31668060 69.39939831
W 27.29648549 19.57119244 70.97087456
W 42.16115227 8.80274961 83.66566308
W 33.18200382 13.84063585 55.11556622
W 20.66821264 28.69970133 58.51983068
W 26.44886342 34.88294405 82.67456849
W 24.49203941 10.57417373 97.26787767
W 26.05693001 28.57443511 89.34237623
W 40.33921344 15.23348740 90.51822606
W 20.09346029 35.62548459 52.29732021
W 17.56409199 31.17360095 91.45996003
W 6.41392890 10.43222580 72.21251905
W 34.73952664 37.10112067 53.67425664
W 37.62582764 8.79428455 87.45892968
W 33.68109635 35.22238647 75.08557472
W 38.27504668 0.37593193 82.46277838
W 43.89826559 40.74439829 63.05090063
W 14.59836087 16.59247926 77.78198896
W 23.16771827 29.19717545 96.06920077
W 41.06858962 1.46305502 79.11857538
W 42.07767388 19.58075998 62.10634202
W 11.06232924 7.28299394 94.48766090
W 41.38578371 44.05515775 85.28405641
W 2.94269424 48.93162594 95.93207709
W 48.89429073 3.30867930 96.09542426
W 2.02904619 8.21095339 2.02963004
W 1.55287927 4.40803233 5.56482171
W 49.08458734 5.81429626 7.02611523
W 47.74651374 1.04007039 5.63325333
W 1.30065282 4.78563436 8.53733379
W 0.33075715 2.88887077 10.21653071
W 1.86865618 4.56528651 11.87962523
W 49.11648820 3.06876340 13.37593033
W 1.46038577 4.43081803 14.68905306
W 49.28010150 2.73992413 16.46298726
W 1.17359809 4.50095448 18.05409139
W 49.42517064 2.85549059 19.57625275
W 1.22203695 4.37487316 21.42475259
W 49.02399142 2.66624830 22.91261641
W 1.54204733 4.22064745 24.58490450
W 0.27541563 2.87625799 26.34749200
W 1.75134870 4.41484463 27.97131174
W 0.07291705 2.54779651 29.39071864
W 1.69477412 4.46458928 30.93107660
W 49.30079112 2.99335497 32.48648394
W 1.84684263 4.39461163 34.51148228
W 0.03641216 2.89351644 35.92758626
W 1.52430216 4.70380463 37.36846605
W 0.18730831 2.83068393 39.09890813
W 1.95284446 4.47548106 40.82479761
W 49.29175766 2.83707003 42.51709791
W 1.66991814 4.02471448 43.94269092
W 0.00985066 2.65363310 45.70912052
W 1.69907384 4.71626559 47.18143928
W 45.77065322 26.05768196 78.61658210
W 43.81545030 40.54404453 60.50543837
W 6.55156480 27.22319355 70.71046950
W 19.03071830 36.59788566 55.60896883
W 10.22819661 30.01522281 65.01881410
W 45.56738422 48.91399866 49.37823710
W 24.21620034 35.83379223 61.23061502
W 39.58456634 32.28835472 1.02150686
W 41.38081620 10.40995645 60.06704188
W 0.21220019 33.12352815 48.71435630
W 27.28277548 20.98600870 66.19198768
W 22.48132884 43.79097755 62.07565338
W 14.78851180 44.81123929 84.52792496
W 35.01059099 2.58115182 65.10479651
W 8.63475349 1.39495259 54.06935973
W 4.49592163 33.89598005 56.61995619
W 27.56803469 1.68269239 76.79242649
W 2.37984837 17.84551446 67.44918672
W 12.92419972 40.77850185 85.25820543
W 32.86492196 48.97622425 48.77692874
W 11.45699043 18.80616572 51.14382878
W 35.69878663 46.73165218 61.97687979
W 10.85213254 1.15711856 91.54629405
W 20.75916321 13.42568665 71.01064842
W 44.62086427 30.40060022 70.91896027
W 23.34480459 35.36269195 52.50656547
W 13.48087227 26.17873131 55.68761708
W 38.17780870 40.67270992 86.74989503
W 29.06279820 40.34554307 74.61462014
W 47.56014753 5.88276437 89.34575334
W 46.05244562 3.55893990 96.62860879
W 48.69204250 9.49077663 0.73299538
W 49.35519764 5.84471213 3.79405866
W 1.61402011 7.67931372 5.34944298
W 47.55298923 4.21748055 8.92559611
W 1.75492260 7.81791119 8.61185686
W 49.37221127 6.10400580 10.18458500
W 1.77489989 8.00632154 11.74772639
W 0.09381936 6.24547809 13.19157458
W 1.64867087 7.89698592 14.87403810
W 48.90690953 6.17865111 16.34119083
W 1.24283437 7.66922826 18.18613060
W 49.11260322 6.30535179 20.05293464
W 1.55447940 8.11393175 21.42793274
W 49.25403135 6.19756863 23.19253986
W 1.53164790 7.83267794 24.48580903
W 0.20416865 6.29637903 26.40222349
W 1.67960267 7.73419859 27.73725312
W 49.29612676 5.98583531 29.69693803
W 1.75050478 7.89619443 30.99407514
W 49.39178911 5.97950071 33.04666045
W 1.39743057 7.74124564 34.49935568
W 49.36115615 6.13509779 35.99969675
W 1.55809198 7.68813662 37.58916331
W 49.22456657 5.94541449 39.18953647
W 1.96752708 8.00353723 40.71020345
W 0.12377606 6.24549859 42.58057637
W 1.50150779 7.64291175 43.88088054
W 49.24663831 6.08017920 45.43589506
W 1.30206405 7.71398152 47.11518896
W 1.05209820 2.77685211 57.49485218
W 19.41910390 2.98796935 55.72905471
W 26.52186263 45.91604144 52.16049976
W 40.95042334 17.45921870 63.19246525
W 19.64472121 46.00026768 55.14792649
W 10.07277380 16.41285613 48.59821401
W 15.93663633 20.46512013 49.88013724
W 5.43205357 15.62284575 77.70672635
W 26.38003166 35.64677654 48.79989714
W 16.35839143 36.99005896 68.37955805
W 33.25305909 26.71856637 89.25241845
W 13.03597813 32.63827253 65.49849750
W 7.39943310 8.47368386 80.89401907
W 16.83654448 28.71721361 89.31562592
W 43.14871151 9.54697838 95.97124324
W 31.68031728 27.67161580 98.14443587
W 29.33331433 0.94821901 62.06625233
W 45.45366885 43.83742519 86.31147079
W 1.66292030 7.35905674 50.12857336
W 44.14974339 35.05193621 59.83735110
W 23.29555630 15.25310898 54.75792650
W 32.90716128 29.21203036 96.09518306
W 48.18432409 1.48667284 88.40144199
W 31.43334967 45.03387333 73.37580287
W 32.60861968 12.91296048 92.80452324
W 6.25645973 0.29797350 91.89191751
W 35.10072123 48.91454328 81.24347724
W 12.97781301 42.30440862 52.66525503
W 25.09080705 21.02179148 91.36183074
W 29.05064985 11.33158735 78.32426764
W 47.71032013 10.21685366 97.13707035
W 1.83859716 10.93140627 2.06000620
W 0.20736586 9.30450505 3.58583813
W 1.61841025 10.94349100 5.27584049
W 0.10955369 9.22224301 7.04219091
W 1.61546373 10.92371821 8.34895781
W 49.22727349 9.93521069 10.25732509
W 1.45698747 11.22190548 11.86611670
W 49.39038730 9.48415570 13.15592484
W 1.48084191 11.31047663 14.73646132
W 49.33854262 9.54204136 16.43853170
W 1.34122439 11.09137151 18.18264931
W 49.10625639 9.28925221 19.73226503
W 1.35564724 10.92615271 21.24454092
W 49.34210460 9.28856926 23.15248002
W 1.74116585 11.44601679 24.63843272
W 0.06342819 9.57112336 26.11701831
W 1.81301155 11.50344681 27.76413925
W 49.32499198 9.54561906 29.61906232
W 1.69081032 11.05724413 30.96760853
W 0.30318779 9.57294441 32.67001077
W 1.59417355 11.33803415 34.25712882
W 49.16965422 9.45686119 35.58883329
W 1.74057394 10.92524590 37.17858716
W 48.91625250 9.22893728 38.64366737
W 1.55470496 10.29449078 40.18687623
W 0.24015518 9.54187375 42.22253384
W 1.83423254 10.97919696 44.11123580
W 0.10110116 9.70743609 45.49820557
W 2.09878774 11.47244332 46.86654504
W 27.10980679 5.76877106 85.23378878
W 6.58250390 12.53816300 48.17694152
W 3.26891513 40.34757050 80.79260680
W 13.12072958 12.02846165 51.24052684
W 6.60084317 1.82908758 95.48148857
W 46.00576449 6.15741509 72.98630781
W 17.32937911 20.99175262 87.31047277
W 27.20263596 28.59474376 92.06139556
W 10.63310213 40.57131956 63.70268600
W 13.21489988 44.95382279 70.20054900
W 20.22201154 1.53930309 79.64456119
W 38.36066608 10.22870506 80.03641509
W 21.82412965 29.60785108 90.68027246
W 26.56906453 49.12493050 96.09298209
W 15.03780711 30.39038796 71.62993491
W 36.38736030 2.66190393 96.04078551
W 49.29023386 46.21827117 52.11297073
W 48.99718620 35.68799706 55.27108827
W 6.25645897 15.67596741 54.99758183
W 9.99278106 45.91214084 91.63177598
W 27.11733976 34.93458958 63.12916120
W 37.99454649 29.63418181 79.30947810
W 23.53759919 35.24749820 82.53171020
W 9.84192846 4.05366932 67.14905825
W 8.20825584 43.79785094 97.94517040
W 25.59983718 45.28155662 91.04383376
W 49.11114881 42.94420414 0.46932214
W 43.95154868 1.78823865 50.53794941
W 37.83812961 40.68234117 53.49475788
W 24.49559404 19.90675570 71.49450591
W 0.07385593 9.12055809 95.59322667
W 1.81213641 14.09171657 2.31669113
W 0.06845621 12.35132918 3.53270146
W 1.55244784 14.46959683 5.24382570
W 49.25889563 12.77871432 7.07558780
W 1.81278014 14.26179553 8.43597769
W 0.37596180 12.80345210 10.23304327
W 2.07640897 14.65169509 11.48080066
W 49.09434548 12.65010955 13.03784290
W 1.70114234 14.27712022 15.09207066
W 0.08885180 12.83708635 16.65588829
W 1.54837881 14.13988759 18.34649313
W 0.17913631 12.77036764 19.90343339
W 1.23322591 14.32297619 21.59773822
W 48.90956363 12.51419944 22.95272839
W 1.31988642 14.46618201 24.52499454
W 49.22283117 12.40193839 26.12096394
W 1.63318261 14.63766718 27.84171747
W 49.23885980 12.65310124 29.23078735
W 1.73509518 14.23924338 30.85565153
W 0.21932661 12.96558588 32.90524066
W 1.58327478 14.51554912 34.25620364
W 0.16831499 12.56347150 36.03609033
W 1.89091586 14.46396791 37.57037939
W 0.38174294 12.28839873 39.34928974
W 1.52659512 14.21627262 39.99524462
W 0.31699182 12.89355986 42.31491333
W 2.19432365 14.42279746 43.52765860
W 0.42196678 12.87072085 45.33339195
W 48.18886099 17.03380140 49.65505000
W 3.85547789 10.11708928 55.15294283
W 39.78246168 31.28213665 92.54373450
W 7.27431426 47.42252575 85.65396878
W 34.49953905 2.28867752 77.57982637
W 9.59764148 17.14321442 74.96153320
W 25.32193929 5.51809150 82.98268225
W 12.51530304 29.63467496 70.50460823
W 44.43091821 21.05410943 66.61600537
W 35.77913962 2.00528151 69.79088765
W 46.46900636 3.01291241 93.19904556
W 13.52196793 24.28068578 88.21100223
W 14.30102021 48.64432028 78.78826612
W 8.83549033 6.35408184 84.39448417
W 35.81253566 15.90827560 0.45557145
W 6.94668224 12.04763231 85.57938579
W 9.05353289 14.23351092 76.24668201
W 7.50542699 39.35371780 89.80190794
W 9.53461737 32.39855208 59.30860791
W 36.56164736 10.60937873 61.71241900
W 35.96633913 3.01256336 48.80761036
W 37.51391975 39.74204843 69.96630928
W 44.30929825 37.47212450 94.81812560
W 36.70905352 10.48949871 89.60353995
W 49.17523512 39.65063486 52.14696219
W 23.43961192 48.13301346 69.20273144
W 31.37634239 14.94238906 91.50974748
W 4.94027087 1.45944467 53.38263401
W 33.82513890 1.13463717 74.94835394
W 33.04145738 41.14367265 79.92141894
W 10.19416196 40.14391508 91.15942691
W 0.07864379 16.04767093 96.05271596
W 1.62226327 17.66872895 1.94717803
W 0.03810534 15.61408107 3.68696780
W 1.78116708 17.49351055 5.35644448
W 0.07205221 15.93554741 7.15218285
W 1.57235395 17.61734412 8.24048006
W 0.14093139 15.97259848 10.12681713
W 1.52210047 17.53494352 11.60338440
W 49.38707079 15.94277715 13.26211101
W 1.32107279 16.98840321 15.12503318
W 49.07266502 15.46029087 16.59016473
W 1.82206915 17.45462183 18.07759586
W 0.04866264 15.81082596 19.72208319
W 1.35422633 17.67259634 21.04195029
W 49.35362889 16.50393334 23.34286305
W 1.69529687 17.55578009 24.55801849
W 0.13390462 16.32925564 26.54744009
W 1.87674882 17.58400053 28.09620389
W 49.34251607 16.22089731 29.38005627
W 1.84915409 17.54970758 30.86846029
W 49.30365466 16.12000314 32.59026776
W 1.82396089 17.91236411 34.20755274
W 0.13806313 15.82459624 35.53032686
W 1.53911121 17.94446218 37.35989162
W 0.04279529 16.01733402 39.07990361
W 1.63658679 18.17789748 40.76347103
W 0.45517071 16.08655189 41.94672113
W 1.78889563 17.66937572 43.51182666
W 0.63782006 16.24970128 45.37656898
W 1.26053742 17.44378643 47.79799871
W 31.61621731 16.88929630 76.81659708
W 2.56976917 17.14427374 59.66870086
W 35.51661197 24.60056009 86.87876847
W 40.46746956 5.37283570 74.87665442
W 45.89625884 22.25776229 58.70927062
W 12.86200901 6.70203449 71.84282979
W 6.51371950 0.69018892 62.16950590
W 23.84288022 6.69977971 64.32889166
W 1.17720926 44.31798187 53.10740582
W 41.02860959 40.99317417 56.53023016
W 39.87252488 40.31975946 75.35525617
W 13.25359352 41.27859734 77.74959324
W 0.10273076 6.80774021 1.15465644
W 33.47479994 6.07840416 79.65816266
W 49.06621969 46.36522525 83.77154504
W 18.91260076 9.55390725 86.19290284
W 46.62344161 13.17346497 58.50927799
W 0.47126309 40.39796203 87.37666816
W 4.68095887 36.88261798 50.75221959
W 46.30316763 15.45662706 86.71144151
W 38.84216640 16.69098633 69.62373395
W 9.74630088 35.79986738 96.01365869
W 25.02353342 11.53999603 77.36486893
W 18.14943267 44.14284810 49.80677094
W 24.55328100 38.37678665 71.58978836
W 30.17236473 17.88691397 66.65991287
W 36.15639955 23.13703739 61.13746755
W 46.27300855 25.28204267 96.24240332
W 46.33375327 41.93916167 83.63766397
W 21.09732072 41.06337350 57.22174696
W 49.04145354 19.24568380 0.32861178
W 1.55937204 20.46692435 1.90272157
W 0.12013428 19.10022070 3.42419501
W 1.35850341 20.63471635 5.04766956
W 49.26560761 19.08459292 6.67406857
W 1.07984847 20.82529156 7.91032238
W 0.21959335 19.43386235 9.92221497
W 1.33134940 20.82878487 11.82802072
W 49.41739103 19.24005472 13.20847965
W 1.78600502 21.10756446 14.82591545
W 0.02887256 19.04871162 16.49482875
W 1.93133497 20.77670471 17.81975928
W 49.28253949 19.25161217 19.37723618
W 1.50411711 21.00110464 21.08001804
W 49.28358712 19.82310100 23.00964945
W 1.46410087 21.02730971 24.49112181
W 0.19490830 19.25495996 26.70488558
W 1.82669515 20.82836943 27.75388015
W 0.11697497 19.53692037 29.57909836
W 1.61244882 21.07092709 31.41437607
W 0.04150133 19.44851537 32.48471819
W 1.56892329 21.55799553 34.19860854
W 0.26679803 19.58638599 35.61055720
W 1.90679803 21.04099922 37.46252139
W 49.33877124 19.68175877 38.80981827
W 1.91615017 21.35910109 40.41705694
W 0.20201737 19.82890395 42.07673579
W 1.97915281 21.18664974 44.24972683
W 0.20935826 19.51303999 45.63509764
W 1.80837280 21.06749539 47.04707843
W 46.46357917 19.00649924 74.50300450
W 6.99890884 19.48183364 48.53419717
W 39.69336413 29.06820873 54.62563834
W 12.03845067 7.42885570 60.32304948
W 38.72516275 22.02485153 90.25534607
W 36.49778097 38.27079694 65.75527258
W 4.84983194 27.93722728 50.50554316
W 44.39758202 25.74807772 76.30191233
W 46.37911689 26.02881713 89.13904674
W 34.87891946 9.48159560 86.12453350
W 34.19907281 35.58021019 61.86246000
W 2.04178983 15.51157997 74.56630401
W 29.55489544 5.35103331 71.17676380
W 15.42623369 40.63880716 79.89716584
W 37.89367223 27.48322610 50.44596557
W 8.39187126 32.99145130 74.52616729
W 30.11807026 16.69161267 72.08851894
W 5.77359524 35.51093194 58.88499735
W 28.11343320 10.23838824 68.82858082
W 8.68447837 21.55197898 94.61570989
W 16.76666095 27.99479621 70.88040533
W 44.28960588 19.21289218 80.22499782
W 6.68310336 40.82586343 77.54855794
W 44.19104875 0.04524855 64.48606895
W 36.00565840 36.15178947 48.56560280
W 4.94286169 47.12445947 50.78240128
W 11.94282732 21.91156358 88.71624057
W 29.43549532 32.67910356 72.40410047
W 47.25271836 17.01533012 64.25789482
W 1.27479919 20.89650535 97.32697773
W 49.34822964 22.05784818 0.62469555
W 1.54058038 24.58574245 2.30412636
W 49.37150211 22.58619855 3.69127357
W 1.85340022 24.19291949 5.09532337
W 49.02849916 22.87077680 7.03493748
W 1.33502963 25.02789199 8.96464520
W 49.28716783 22.58092143 9.76386529
W 1.56706059 24.38962529 11.35345127
W 0.13689669 22.63334142 13.08130183
W 1.65709038 24.30598929 14.99034236
W 49.24245763 22.30644489 16.43529286
W 1.62355296 23.89221636 17.90681937
W 49.30643776 22.41940565 19.62456800
W 1.51048121 23.98256911 21.15546470
W 49.24895762 22.45970358 23.06978867
W 2.10129893 24.18761440 24.17296547
W 49.35700973 22.11608737 26.51412530
W 2.18839975 24.38582609 27.93512911
W 0.15418397 22.46798837 29.61523105
W 1.52563483 24.47684332 31.16290548
W 49.24700868 23.01761073 32.66111839
W 1.72677270 24.64270161 34.56193154
W 0.01227412 22.74482581 36.02514623
W 1.66963398 24.36766645 37.25720432
W 0.33235143 22.97162289 39.01351577
W 1.69492501 24.54274101 40.54349803
W 0.02265925 22.64591886 42.09834442
W 1.53536982 24.41145832 43.51123826
W 0.00821130 22.73472619 45.60692629
W 1.51462926 24.49524023 47.04592431
W 29.09903973 15.36539162 85.74548807
W 4.35443725 26.47590982 69.71822352
W 26.94197703 19.60726025 59.68910329
W 31.87695664 15.97614598 65.56927595
W 32.06392237 1.86610747 79.02310735
W 47.54050765 40.92953659 50.43674602
W 44.19859117 30.05642542 83.74701804
W 38.94284416 16.45822384 66.98471475
W 6.70370160 6.07625840 96.00710915
W 3.39403906 5.94350527 48.78155047
W 27.86482432 14.75994836 91.00994935
W 8.55481051 39.16656756 86.34270630
W 34.02139161 48.51186272 86.51248735
W 25.39636890 31.66814034 87.37889902
W 6.39954674 14.30667939 76.00921017
W 41.46159536 5.21340214 94.94745037
W 4.89066015 14.55414459 97.38797035
W 7.75271727 15.62431798 51.14360585
W 16.62265361 32.54313522 93.22078843
W 36.94505232 4.01231674 84.10009190
W 9.57133339 26.50044425 96.47155058
W 48.46994504 31.13787408 57.55415586
W 39.63367880 19.39954486 61.43681327
W 37.16934921 18.18107383 66.91767424
W 44.29756721 25.87444181 81.31237666
W 21.40805136 34.43493066 94.23099057
W 25.47467458 34.53412147 72.32391949
W 16.33505816 16.10990485 63.16869350
W 45.91994974 36.32856875 66.63813689
W 48.52647824 30.72592670 79.32147967
W 1.72759192 27.34406089 2.08772044
W 1.66875301 30.41304293 1.91012720
W 49.36547882 25.80488005 3.85130036
W 1.78033932 27.58624972 5.22038788
W 0.12912440 26.08961210 6.92825519
W 1.55399332 27.65543119 8.66155280
W 48.80972511 26.06093965 10.22545447
W 1.64804487 27.29712562 12.03233442
W 49.15967159 25.85223783 13.35051009
W 1.48445104 27.26562401 14.82616976
W 49.23882573 25.52681005 16.37185951
W 1.66691892 27.50795972 18.10397895
W 0.02034648 26.02067632 19.83728746
W 1.75328467 27.77179390 21.24323621
W 49.09610656 26.06473327 22.72139620
W 1.49802162 27.18008780 24.48232747
W 0.45184993 25.62896222 26.32425265
W 1.98404047 27.64364393 27.53623092
W 0.17862813 25.92922609 29.12892790
W 1.75660974 27.84757730 30.89708917
W 49.31327532 26.31997528 32.49286866
W 1.54091678 27.81939351 34.33542775
W 49.43868226 26.16670629 35.79933379
W 1.63776060 27.72837428 37.47518277
W 0.06352658 25.98635993 39.06790903
W 1.50894106 27.37635103 40.28241263
W 0.07191069 26.03306994 42.24570120
W 1.91694486 27.25251715 43.59825824
W 49.27895824 25.91147436 45.31735918
W 3.33016360 25.45800232 48.80077071
W 47.88748410 44.59774403 56.02050791
W 27.00528238 9.44074906 71.39721853
W 47.25139472 4.04405012 50.59979202
W 6.34935685 18.87938977 63.72790101
W 22.12996534 42.81613449 69.87091618
W 48.54292031 15.06302158 65.62139317
W 31.40534719 5.04121361 66.01480801
W 9.92862235 33.03528671 81.63433754
W 42.48223700 12.83810062 95.89119651
W 20.22440361 8.81237125 89.92860134
W 2.11270863 2.65678027 79.62725468
W 2.64629847 25.21375921 79.63970457
W 48.73430235 46.82684982 77.56797615
W 33.01676880 9.17289685 54.55345741
W 20.74322843 37.23746480 75.10049642
W 13.24021249 10.76983405 80.81441011
W 12.72517508 7.83024683 65.14346255
W 46.07530118 32.75746959 0.79080457
W 9.33021943 33.40949654 84.59016834
W 37.59311486 43.84920230 97.96636040
W 20.22934126 26.16831159 49.32010509
W 46.01277936 46.42384191 73.20016115
W 3.61572469 45.50941012 48.90978345
W 18.62641308 2.38289777 89.83203451
W 0.56846923 47.13044980 86.36217167
W 29.08273355 22.32132918 96.30186798
W 29.32842380 25.92785318 83.57507774
W 20.88266723 18.69472772 55.42207439
W 38.16191460 32.32551967 88.21498088
W 22.61673697 35.12554289 63.14122166
W 0.20565575 28.95696470 0.15077907
W 49.07295490 31.61133026 0.77706315
W -0.00224498 29.00876140 3.74581066
W 1.48797545 30.74359107 5.08887216
W 49.34185446 28.96882797 7.14576596
W 1.37655205 30.30474610 8.81866371
W 0.22858360 29.02570627 10.89850683
W 1.25107196 30.79694278 12.07844716
W 0.01541894 29.02416775 13.42156045
W 1.18048873 30.66934820 15.28713932
W 49.25996213 28.88768293 16.57574183
W 1.69789679 30.86027411 18.43599249
W 49.08924447 29.14220718 19.91733415
W 1.68098747 30.82109640 21.43870209
W 49.27222221 28.87851901 22.76193180
W 1.56145420 30.89726378 24.49670906
W 49.42339132 28.83001867 26.11555852
W 1.24181407 30.80906898 27.91511498
W 49.26231053 29.23500164 29.32202570
W 1.33435268 31.25730046 30.92689680
W 0.12806534 29.45255216 32.56580590
W 1.75670033 30.72094199 34.34219787
W 0.15814063 29.08532180 36.24374100
W 1.76462768 30.80213743 37.50398242
W 0.10393734 29.37628946 39.01334041
W 1.90678374 30.87986473 40.84894940
W 0.34166425 29.24046141 42.54432905
W 1.76568735 31.02485977 44.16800956
W 0.58582132 28.79892505 45.31187918
W 1.78937525 30.97143558 47.39905653
W 48.46559127 17.62558693 66.89279156
W 7.41231260 48.25981859 74.38284306
W 46.08540654 39.59371917 49.00989577
W 13.73956870 38.75936371 54.67507183
W 26.07946228 28.41196706 51.97754770
W 10.34982604 6.66332966 52.06980078
W 39.59421859 48.59378240 71.18922790
W 17.15856979 24.27579687 78.61386328
W 3.14417316 10.84007093 59.01956294
W 35.93603173 44.71709983 68.42159877
W 36.20242122 3.15346479 62.80236159
W 10.36279471 0.42069167 60.03522260
W 20.09703282 42.51686245 52.01713482
W 32.62706964 42.70150980 48.99356835
W 29.60281760 38.93845124 96.11960866
W 24.54939714 41.02291870 53.66418359
W 31.28750875 1.82575803 97.68705499
W 33.10475164 48.39000508 89.18156069
W 7.59843763 5.34142390 81.51901344
W 5.25524150 11.07693949 57.15287524
W 1.71882594 43.91785026 68.11660290
W 18.62821296 37.68444866 91.67454847
W 25.87946488 29.80252744 94.15556124
W 35.18689908 37.60355751 76.79592907
W 31.83888180 48.54255810 79.31366006
W 28.80788314 18.72813984 69.59091738
W 12.74819298 45.25463002 67.48036483
W 27.92846122 23.99014071 72.10885474
W 36.58733502 8.45044156 73.80586700
W 34.80778408 4.13832231 50.96058622
W 10.02109305 40.25768404 88.64625573
W 1.09623703 33.86377065 2.27231715
W 49.03963940 32.37678027 3.87629235
W 1.67616008 33.68360528 5.32354985
W 49.31874488 32.19732901 7.19612943
W 1.61099475 33.67049794 8.64982012
W 49.07062656 32.41277227 10.42934631
W 1.91672482 33.55303047 11.94517315
W 49.28838314 32.59673107 13.49644519
W 1.75066670 34.01742891 15.42487378
W 0.01968570 32.39012675 16.71863872
W 1.43935879 34.26134647 18.46874981
W -0.02748077 32.26245900 19.92274077
W 1.55496661 34.49862552 21.47507973
W 48.95050389 32.90699682 22.89706962
W 1.49293516 34.08149818 24.37769953
W 49.16285173 32.56755762 25.84066934
W 1.42338461 34.13490579 28.12842827
W 49.19156115 32.53754408 29.13013104
W 1.56811937 33.81904933 30.92078223
W 0.17953946 32.51384949 33.18442440
W 1.82731043 34.08791977 34.09728076
W -0.00338593 32.54595814 35.84920539
W 1.68107020 34.21520427 37.38553369
W 0.29828684 32.50960718 39.02013789
W 1.52359296 34.24583973 40.65998949
W 0.02097099 32.65740582 42.33049527
W 1.51017543 34.17460281 43.64292782
W 49.33392030 33.11732636 45.74649817
W 1.64679992 34.58668065 46.93537697
W 42.60900043 32.24941607 54.95810584
W 11.49672093 4.32199515 53.75061987
W 17.83844257 44.08038432 56.63625440
W 44.50505351 37.69032130 47.39950797
W 13.68050445 49.20533576 82.72096797
W 9.86244365 22.70604310 48.44268769
W 1.05140868 8.30442388 69.01032962
W 44.41492621 8.25029982 67.70236119
W 11.56271797 16.11621804 64.46330936
W 37.67387178 16.21317598 79.88090383
W 8.92495672 30.84847358 83.85943201
W 33.36100696 45.47000953 82.19453573
W 36.18849301 43.81926563 63.15438496
W 3.63956874 16.02031971 92.00694458
W 29.72552154 29.63393316 86.78337389
W 6.33633590 21.88104062 69.89872607
W 48.89892456 48.35852235 69.75147258
W 8.66754165 11.78392594 71.48375965
W 4.89238597 49.10112802 86.06540701
W 42.60112200 3.04961449 48.60383482
W 45.74772159 48.61085023 95.94365623
W 42.61558213 45.92731832 70.29838235
W 21.74676117 14.83979565 90.83991066
W 12.98447960 45.62346716 96.63533002
W 27.48702952 14.13972609 94.49408331
W 22.57670730 34.25830948 89.58843207
W 15.08018811 46.07496338 79.73199914
W 1.84187036 27.62552590 53.37406643
W 27.20854922 14.26119492 57.35287800
W 44.98894298 16.46529424 74.32107176
W 41.84707255 28.01166996 91.36741477
W 1.23080071 37.06720812 2.29412038
W 49.20445374 35.35093776 3.89703969
W 1.64168013 37.28899182 5.56185764
W 0.18612205 35.40383177 7.34986649
W 1.57846277 37.19313435 8.52333819
W 49.17845280 35.51127251 10.13836658
W 1.33081984 37.51402368 12.01149838
W 49.00691551 35.54136828 13.38581251
W 1.00686706 37.09360071 15.02466600
W 49.28841642 35.83913756 16.96495635
W 1.20083277 37.45365227 18.38915209
W 48.97471874 35.61821895 19.80452991
W 1.18498371 37.34434556 21.53197968
W 49.07371620 35.76101222 23.08963211
W 1.41933446 37.05895012 24.63515084
W 49.25886282 35.73327523 26.10861095
W 1.53902427 37.41474567 27.56308632
W 48.84742475 35.74280446 29.05752478
W 1.38389128 37.17656283 30.51563111
W 49.16884240 35.70063430 32.74639225
W 1.44164193 37.34307403 33.96265477
W 49.26241485 35.95053352 36.07845601
W 1.77344465 37.19367678 37.20821915
W 0.11240690 35.77249415 38.92620462
W 1.83884558 37.33295707 40.69589440
W 48.83952283 35.63749066 42.20961739
W 1.60841559 37.18892375 44.01030027
W 49.24772859 36.14288752 45.44128622
W 1.52675227 37.57773243 46.95795598
W 21.22444612 10.89645646 69.42987713
W 16.92718267 12.65015136 96.10846122
W 8.09370543 41.01404225 94.60951328
W 46.39388000 32.19410675 48.64144876
W 21.62315290 47.22237267 53.68899678
W 23.20725540 35.42503697 70.61198373
W 5.66482933 40.30392321 69.90004490
W 41.63029806 11.05066648 53.30356679
W 42.43651962 39.32284115 87.10255890
W 5.02164902 15.35465862 73.57481785
W 16.08033935 29.11842418 83.96520112
W 25.92986523 18.95027836 62.25957541
W 13.44797343 15.05161036 54.44710457
W 9.92811863 1.57572187 78.33269614
W 19.27875070 7.38598973 75.85091515
W 22.95035993 48.91746164 48.85259157
W 36.07318128 23.87639817 74.12913989
W 33.05880589 6.42905523 0.33346378
W 17.98611487 0.80235768 66.91234934
W 19.75273616 37.14021412 71.93989979
W 31.94640331 47.65209641 64.68362450
W 29.22074098 18.62053574 81.84253901
W 18.38682626 26.32759720 81.10814981
W 11.88698218 47.22718094 75.23718460
W 13.48401576 42.08787580 90.34196347
W 36.57358883 3.03606263 66.87421684
W 18.08310477 7.67834610 98.04203611
W 0.31603451 36.20039872 68.31045982
W 5.25318574 30.83777729 97.99746891
W 7.88271077 35.67962355 90.31189365
W 48.80789751 38.33003354 0.94716417
W 6.20564992 35.54761916 0.43289821
W 49.08869154 38.50822706 3.85966843
W 1.28496216 40.76421692 5.74355802
W 49.23752524 38.79278664 6.81967180
W 1.46767349 40.40629877 8.70384718
W 49.27515973 38.83829493 10.27530649
W 1.47481814 40.87192293 11.76950444
W 0.29895122 39.53085523 13.67141123
W 1.48829318 41.04603951 15.15096554
W 49.08895667 38.98420897 16.64589490
W 1.50708532 40.50247535 18.32858538
W 49.22669246 39.00607983 20.29296292
W 1.44450263 41.00049457 21.49282197
W 49.22176652 38.82692657 23.57503399
W 1.35507728 40.55909207 24.42369218
W 0.07244899 39.13913186 26.11444925
W 1.34261093 40.33943898 27.74769220
W 49.20037373 38.87804017 29.69754272
W 1.43600711 40.31075597 31.19997185
W 49.18838310 38.94065116 33.12055904
W 1.50949275 40.45334811 34.10755212
W 0.28013291 38.95852363 36.05004615
W 1.75914723 40.79468035 37.42118932
W 0.15791760 38.81516775 38.97112783
W 1.50456549 40.75325829 40.53342847
W 49.28935381 38.98154475 42.31180158
W 1.45888669 40.49211311 43.90470369
W 49.16694315 39.52193037 45.47923969
W 1.75908675 40.67948055 47.45582800
W 45.83294169 42.85807806 49.26769640
W 15.58423942 42.68715767 70.25908859
W 41.10021963 14.83098954 68.23045746
W 25.14289729 28.86123458 62.84266224
W 15.55773679 28.56309287 75.89303131
W 25.57693198 32.94997307 56.66348473
W 28.26477243 30.54087135 50.74947406
W 40.38382814 28.77854133 63.02654064
W 33.71503577 39.44187960 63.54362348
W 16.94535747 12.24521635 89.92205639
W 14.75031415 1.75526749 56.54323641
W 3.64997997 22.90411221 84.82673079
W 43.40909950 5.29563864 73.03268897
W 37.43056581 17.85337784 97.91715051
W 8.26172347 43.27174423 50.85251154
W 48.57950511 47.06324682 54.46945562
W 45.06468837 19.59536801 61.36523830
W 29.42982815 15.85178037 92.83572144
W 8.12913498 8.68230489 72.82447900
W 34.36558996 9.69449513 82.94247153
W 15.28496599 7.98572734 50.26022012
W 29.81845421 42.23436633 0.74436684
W 13.99364915 4.21775809 79.42383588
W 25.44423031 43.94576743 63.46453860
W 28.99901023 32.32760416 56.43651095
W 14.23195552 7.95422901 81.02079535
W 46.89867346 35.48144679 61.20707821
W 28.90844819 8.58407301 81.49416228
W 30.82176693 30.74032436 91.72395381
W 6.37214029 39.04652759 96.48874381
W 1.25723780 40.90514684 1.84623651
W 1.25295321 44.12711437 2.25767180
W 49.29734553 42.57778426 4.05558609
W 1.00260159 43.76745817 5.97182093
W 48.80338545 41.87835172 7.35066314
W 1.09700908 43.91788179 8.33042700
W 49.23151051 42.40069886 10.10676793
W 1.32936479 44.24451901 11.82242232
W 49.24880962 42.47552973 13.39337522
W 1.56480835 43.90183268 15.58694685
W 49.09576075 42.95627667 17.26335146
W 1.54941185 44.00520275 18.73776914
W 49.25685535 42.63662353 20.15867507
W 1.61715153 44.21411193 21.67641015