13500
Time=99999.99999996 pbc="T T T" Lattice="49.10581413 0.00000000 0.00000000 0.00000000 49.10581413 0.00000000 0.00000000 0.00000000 98.21162827" energy=-103590.98297358 virial="-4825.37350317 -119.58277296 -96.09364895 -119.58277296 -4371.33405712 -125.26868558 -96.09364895 -125.26868558 -2996.08131543" stress="-0.00318253 -0.00050496 -0.00040577 -0.00050496 -0.00126527 -0.00052897 -0.00040577 -0.00052897 0.00454194" Properties=species:S:1:pos:R:3
W 48.82884249 0.62364431 0.29305768
W 1.59083436 1.79093350 1.95213079
W 0.19411503 0.03010809 3.60203446
W 1.48045358 1.63008712 5.07175329
W 49.00607021 0.09695459 6.81019531
W 1.45820812 1.59826508 8.50221470
W 49.03278605 -0.11411965 9.84802481
W 1.77887690 1.34582971 11.68479054
W 0.22159887 49.04515650 13.02731030
W 1.98235251 1.46950521 14.75416279
W 0.18830706 49.11412041 16.42232929
W 1.77667624 1.70582766 17.98318939
W 0.03486435 48.90594241 19.60017971
W 1.65625380 1.48277766 21.17396023
W 0.27363352 48.91194249 22.88365843
W 1.30152669 1.46014299 24.29176318
W 49.17117882 48.84368588 25.92647346
W 1.12997279 1.60805120 27.94159204
W 49.01194558 -0.02715057 29.18367262
W 1.82522462 1.43891169 30.67904283
W 0.14753535 0.09590461 32.41401265
W 1.84043128 1.87281205 34.02531168
W 49.08318628 49.06661364 35.80099254
W 1.39952186 1.35546592 37.55630394
W 49.16322912 0.04090133 39.38578688
W 1.56334523 1.90336661 40.57306123
W 48.96810214 0.06994715 42.37068782
W 1.52243601 1.73952734 43.57788840
W 48.80879387 0.20576202 45.15366451
W 3.24308961 0.04680782 45.20342827
W 3.08839939 48.97755078 48.51502633
W 45.73590836 19.70943310 55.16548751
W 25.92259735 49.05239858 55.28972709
W 10.47834607 11.88513865 75.98322128
W 26.84780295 29.39057850 68.24170457
W 5.12389578 7.70878166 50.40694116
W 41.17942868 18.70959214 77.14371635
W 45.51467314 49.03411134 85.71883859
W 2.47866961 23.45948592 61.64652390
W 41.48421608 20.41736421 71.89847610
W 6.21358726 2.59433056 64.46173130
W 14.83077170 44.09510689 90.74483039
W 24.14774752 11.45899954 97.04069197
W 16.44631254 25.73060730 80.98076148
W 43.99984993 20.84014045 93.61910394
W 24.37312007 40.94621773 56.93466629
W 29.45759418 39.27757588 85.76543882
W 46.80698213 4.81293954 83.90169871
W 26.25913477 33.12956385 58.98945447
W 25.64559274 3.09272778 91.84134543
W 44.40730058 23.40380233 81.20964983
W 48.88142634 6.57663279 85.70080827
W 41.16699384 46.05829560 74.38635831
W 35.28508660 48.98202165 88.52400808
W 19.44413272 35.75331804 91.94220556
W 31.44059994 31.29961137 59.95677998
W 38.09144266 24.61056066 72.64252525
W 13.00430946 9.69198075 95.24824718
W 22.40712418 42.49526856 64.76486067
W 1.61862562 1.19094449 97.18883401
W 0.17679926 3.22329370 0.27605847
W 1.62580037 4.89896098 1.93278292
W -0.04720779 3.20812870 3.47836155
W 1.68814519 5.07958070 5.09892777
W 49.09356631 3.44596760 6.88341458
W 1.66524436 5.25870404 8.21993780
W 0.06454785 2.96749532 10.25573341
W 1.75956558 4.58884616 11.43187773
W 0.10976784 3.51835989 13.65200219
W 1.77617677 4.48345228 14.96957671
W 48.71936714 2.92954744 16.24284164
W 1.57627248 4.76052565 18.41477954
W 0.21958300 3.16295144 19.51141257
W 1.67973748 4.94780155 21.30469057
W 49.00672362 3.16778761 23.10160366
W 1.69841451 4.49435446 24.25999571
W 49.09903541 2.85366758 25.83233726
W 1.75964257 4.85986919 27.76118588
W 48.68747456 2.98525611 29.28352244
W 1.58600785 4.90758959 30.76899384
W 0.18902379 2.85044217 32.60811710
W 1.66058475 5.21106798 34.16766309
W 0.04307300 3.58468123 35.80189691
W 1.45743129 4.82031148 37.33471105
W 49.09349536 3.34626670 39.01877255
W 1.65767220 5.16017109 40.54834514
W 48.94814824 2.94888822 42.52900226
W 1.91956050 4.58273425 43.35285952
W 0.07600918 3.23796210 45.32176460
W 1.83906107 4.72710347 46.36073978
W 39.07064030 39.53781861 72.12764118
W 35.72312736 32.79394758 61.59830811
W 7.94895517 7.36515695 73.18906941
W 3.12562697 33.08868372 65.32568077
W 34.94805379 17.48178338 72.77381919
W 46.44719182 49.09219838 47.97136134
W 18.27137892 25.75531227 68.72061110
W 40.68616779 31.02247390 90.58888969
W 19.68493099 3.06107977 54.76917311
W 47.26315596 34.02974318 50.21833108
W 37.69504588 7.94938998 74.41555158
W 21.29026684 44.10846027 69.64240308
W 9.58785195 42.04520057 92.06032007
W 27.54749352 34.49037068 56.94400023
W 14.67236867 1.47207980 53.89589632
W 6.60359385 42.49178720 54.72759861
W 22.27131120 2.36749840 81.22425469
W 24.63887804 37.69186868 87.74478059
W 31.10696663 40.68127614 80.66317674
W 32.37554438 42.47410724 55.04512104
W 6.48719646 16.50030465 52.40912197
W 29.06600956 29.43497161 52.12904220
W 4.67887677 44.04200852 93.54818428
W 14.85864280 18.21385409 59.94490086
W 41.12472647 7.20202417 74.28799142
W 20.08560990 32.85129296 58.20140713
W 9.62131460 29.29479527 52.03022344
W 42.44106124 42.28385631 91.96489125
W 11.82359888 38.23967146 83.84121664
W 0.39328015 6.29297239 95.26998132
W 0.12691741 6.24036203 0.47816589
W 1.59081007 8.26601008 1.78979346
W 49.05810224 6.61554148 3.21552981
W 1.85184578 8.02422792 4.97565244
W 49.06554636 6.45355514 6.74005153
W 1.55554363 7.91196676 8.18995448
W 48.88072572 6.24897858 10.03058641
W 1.41753301 7.67948370 11.98152843
W 49.02354126 6.31790339 13.20973536
W 1.80926467 8.04218062 14.91433520
W 49.03494498 6.48146160 16.58109075
W 1.30612310 8.02877539 18.03816791
W 48.93253596 6.67457366 19.88720192
W 1.51494556 8.07689824 21.06357343
W 0.04756035 6.09714082 22.40234103
W 1.53038355 7.97754417 24.32860048
W 0.10104049 6.25076424 26.04132599
W 1.74188733 7.87919338 27.49734369
W -0.04050224 6.47069695 29.28615536
W 1.26519581 8.38294992 31.10138207
W 49.12172702 6.45453519 32.26300331
W 1.34626758 8.10846000 33.84562345
W 0.17645146 6.39310152 35.85577547
W 1.56184292 8.16355700 37.15099056
W 49.05243465 6.45244410 38.62277295
W 1.29386040 8.05497979 40.93439805
W 48.94786551 6.72490566 42.45303682
W 1.51931388 7.95380520 43.96014165
W 0.08942498 6.13915094 45.47772862
W 1.49893859 7.69560343 46.65887257
W 42.81909701 47.74206897 72.26274565
W 10.05114854 6.08358960 55.38410132
W 33.95918218 1.80555250 69.44076884
W 32.76130286 32.84874655 61.67340004
W 17.92277921 37.54050040 53.71896044
W 9.75787297 16.09370849 49.06450202
W 11.09511880 24.34736588 56.67604016
W 6.74199454 12.47735058 61.43357320
W 26.05683857 35.87794642 48.44669985
W 14.56082256 1.75477558 69.21800477
W 29.46602783 13.64172897 75.14636558
W 17.64303325 28.19491430 75.77163814
W 42.15869442 42.36619963 78.67170594
W 6.47191011 29.67595920 88.96091287
W 47.23856071 11.05880550 96.94346655
W 28.00039732 14.52680997 83.62940938
W 20.94796767 25.32996536 66.99234675
W 24.07786170 1.97267204 90.25014966
W 1.87698789 7.55785413 50.48280380
W 24.71473064 33.63947669 76.16273584
W 9.88521776 23.75286993 65.23004003
W 29.06708453 29.15992456 95.05297942
W 35.97334369 45.59462663 91.89554254
W 28.45917559 31.10814626 70.62410151
W 25.23935521 14.72519046 83.98013896
W 8.70265477 18.91587824 65.47317745
W 35.58524544 23.23387470 71.38200484
W 9.40857177 42.52219358 48.78971732
W 34.07654673 5.07564167 73.21377689
W 1.72438975 14.22845984 83.84665098
W 49.08472293 9.67976455 98.11234867
W 1.82337271 11.40034632 1.81548197
W 0.02677703 9.67962853 3.19952827
W 1.65549871 11.28949878 4.90290597
W 0.10656217 9.60815932 6.68848660
W 1.50134800 11.16568861 8.66837491
W 0.10582960 9.50299354 10.27112363
W 1.66544385 11.04684536 11.84672759
W 49.00236969 9.76813738 13.32044721
W 1.23952982 11.55186808 14.78655134
W -0.03620504 9.79991877 16.55290261
W 1.51675511 11.26284740 17.93881245
W 48.99139270 9.66460292 19.49214180
W 1.44358100 11.21384103 21.32746316
W 48.93725981 9.51340951 22.58821164
W 1.27797155 11.18096141 24.24817585
W 0.08473710 9.59690383 26.11653521
W 1.30067050 11.12780467 27.62076936
W 48.94716615 9.76267245 29.08770124
W 1.47307331 11.53632911 31.11311520
W 48.83277996 10.23494161 32.45832155
W 1.44479927 11.30357329 34.72033508
W 48.95780370 9.84988626 36.03187725
W 1.44137408 11.28348120 37.45988548
W 48.98582962 9.76586752 38.99984110
W 1.38688340 11.41676800 40.55065249
W 49.05815840 10.09333815 42.23344092
W 1.53710543 11.37338118 44.05552649
W 49.08681240 9.84716010 45.42345413
W 1.53514613 11.15184501 47.24996642
W 42.57582816 19.30659188 91.78969796
W 3.25536563 12.87985489 48.92477734
W 1.53929874 37.86145151 63.07641625
W 13.14492600 12.99955966 52.10651664
W 11.30466192 7.72182099 83.74894576
W 40.92920314 7.86890677 63.65971772
W 4.61159184 30.89265894 87.33650879
W 26.68033377 20.17573332 81.52993642
W 6.72849616 42.76810556 58.10203447
W 43.66842240 33.92901518 70.50703760
W 28.11542452 40.07645553 80.91546393
W 3.02216366 13.52048104 88.94748739
W 17.51040876 34.68242844 80.45600627
W 28.78994225 27.57851928 74.76567257
W 23.67356072 16.16030022 68.72470142
W 35.71858239 2.99712265 95.38376653
W 49.18628580 45.42222157 51.75014454
W 1.23188344 43.72375172 53.72592892
W 16.28295815 16.23489472 55.40902198
W 45.92597205 46.60164805 80.49644631
W 35.84786397 39.30560177 68.09525001
W 16.45029321 30.72323299 81.66561379
W 48.04203282 34.38821704 83.39190727
W 11.53021870 11.57780248 63.23120567
W 3.03674385 38.71486031 88.93164979
W 27.72817712 27.99537169 84.30014924
W 42.57888521 39.24555279 89.04192343
W 43.41635353 12.19099272 64.41856921
W 24.52141568 24.33452339 56.88785788
W 35.75069906 0.17567948 71.59812110
W 0.06569656 12.72236255 0.52207969
W 1.33812355 14.52667921 1.89197972
W 48.65198288 12.80746846 3.39383678
W 1.41816310 14.21879700 5.56584104
W 48.84263540 12.74652137 7.15063974
W 1.45328957 14.35145673 8.78278844
W 48.96244316 12.81971389 10.14588882
W 1.49482184 14.46581550 11.87677979
W 48.99537278 13.09603297 13.46821609
W 1.51243159 14.49901020 15.07101497
W 48.46486168 12.82737085 16.17348288
W 1.25513474 14.79667174 18.07595425
W 48.98898919 12.89437077 20.06037322
W 1.65863782 15.05404370 21.34096553
W 48.98055110 12.66642493 23.00374411
W 1.29867375 14.50906651 24.63528896
W 0.04101160 12.65142888 26.07047517
W 1.31140961 14.61607629 27.96850047
W 48.95146199 13.19748253 29.41649921
W 1.16924875 14.54713324 30.81340364
W 48.82920962 13.19403854 32.67625822
W 1.31377448 14.80013583 34.06487738
W 0.01426137 13.24334721 35.83375754
W 1.65317520 14.74454347 37.33903037
W 49.02958958 12.85278841 38.68913511
W 1.17252104 14.78231177 40.21521846
W 48.79738868 12.94712693 42.17947567
W 1.42213856 14.31818602 44.04403788
W 0.05359279 13.04467614 45.79006960
W 1.66034594 14.65236976 47.12558932
W 1.48948353 11.22224087 50.54324191
W 44.97458997 25.86303413 88.24266336
W 15.54548350 34.62397036 68.20380830
W 6.53013514 45.81705667 91.80948157
W 20.44537872 10.58811348 84.40392685
W 27.50739768 14.35383137 93.96193773
W 2.49999722 39.43340107 80.03908134
W 13.16023055 25.72683376 68.66824559
W 36.33835572 44.89216557 75.40155325
W 39.52131040 5.22876057 74.38949830
W 26.48064967 41.05126844 77.76073804
W 12.87258421 33.23133770 82.69246832
W 1.48940058 1.36742485 93.24197099
W 34.24142903 17.88615369 96.93047132
W 4.57260839 7.47422597 80.59693656
W 11.20557015 1.50422392 53.63064534
W 3.27083315 32.54616866 95.03319839
W 11.51211415 24.70256407 63.41371104
W 42.51379539 36.26775792 58.34291225
W 34.01750037 1.38080614 50.12196698
W 8.25717846 24.19529557 59.98992284
W 37.83785089 37.36173706 93.55998746
W 39.05257571 12.88865344 91.94975322
W 1.71093041 40.88311981 53.38226442
W 6.16811973 41.69732357 65.32366394
W 9.50970275 48.37966828 82.19588950
W 6.65395526 3.06550329 55.11247756
W 34.28690397 24.48056440 93.60888316
W 34.70564704 4.79465402 79.63113400
W 6.53314753 33.16818024 75.09768648
W 0.10164400 16.26877054 0.44914120
W 1.62290775 17.92634964 2.25519590
W 0.02813080 16.14520764 3.72889687
W 1.48599920 17.93116050 5.54690384
W 48.76372836 15.70973438 6.99647473
W 1.13431942 17.31928040 8.28678500
W 48.83019211 16.17224240 10.03300489
W 1.29228150 17.72979834 11.76209987
W 49.05321237 15.97549223 13.32610202
W 1.64896538 17.56564269 15.09006863
W 48.70488638 16.24209331 16.41277662
W 1.44535336 17.99080109 18.14300706
W 48.76510691 16.30210126 19.44106157
W 1.72132129 18.06516730 21.41065235
W 0.05090145 16.22638898 22.57403069
W 1.70467560 17.95169853 24.30363118
W 0.38511663 16.30802230 25.96403996
W 1.26559619 18.20434293 27.59506744
W 48.77424082 16.13062972 29.59232726
W 1.55354711 18.00143076 31.05195377
W 48.90938792 16.45239573 32.66781173
W 1.47700256 17.86660792 34.30164263
W -0.05372072 16.03590602 35.58761255
W 1.48189190 17.82171813 37.47481747
W 48.91369493 16.22470016 38.74618307
W 1.23140086 17.85729849 40.55388383
W 48.92001888 16.19552470 42.08742053
W 1.36295633 18.03850165 43.96652200
W 48.54008328 16.29366070 45.13260771
W 1.64341840 17.73990048 47.25150519
W 36.92761194 29.93360857 71.87972978
W 0.32549862 12.92718479 52.03864580
W 45.83108545 19.54716944 89.03804598
W 47.37295733 4.73197583 63.37299110
W 17.92035415 16.97391600 66.28949059
W 47.54949826 47.24915538 56.99410664
W 9.72072609 19.34603000 55.31495637
W 36.36059581 25.96808566 81.89141109
W 42.43200757 42.61280806 54.83424956
W 34.02336836 37.62438119 77.23112549
W 39.88444974 9.97566342 82.86446412
W 42.91923360 48.55624936 79.69695226
W 1.56454888 11.32592895 96.80097130
W 23.49927756 36.82180555 62.66211023
W 48.92642924 35.95223256 85.07147202
W 32.61425496 12.43464603 82.42896557
W 31.22709970 11.20427165 63.41914733
W 39.29813798 35.85575347 54.91583224
W 4.63173200 37.78621414 50.27197963
W 37.48956216 34.49185204 93.92899050
W 29.19930801 32.70335258 88.99273701
W 11.38694507 37.78395043 96.77306415
W 47.02477776 4.72298846 77.15915276
W 14.59107338 43.81350879 50.08653615
W 22.89986037 16.44820418 65.69857486
W 37.66410591 11.24322145 50.21244962
W 49.13185313 32.45497320 61.53885807
W 4.49055103 24.26043179 96.63468750
W 48.67650987 42.62393474 95.38834552
W 13.02118763 3.03807201 61.71869256
W 48.97927436 19.32889239 0.62146437
W 1.21120129 21.00058074 2.08730243
W 49.12420996 19.27437678 3.82138676
W 1.41038119 21.04711493 4.92405402
W 0.17851274 19.15683785 6.82408640
W 1.63649657 21.17427336 7.98873919
W 0.19150771 19.16954801 10.10994498
W 1.77813607 21.10989830 11.74208748
W 49.13291631 19.39584487 13.31693445
W 1.39932983 21.01150715 14.70197166
W 48.90367398 19.46362863 16.19358817
W 1.39019163 20.93767544 17.87356742
W 48.63380125 19.49512895 19.52128972
W 1.49793045 21.11136786 21.33625961
W 48.85271149 19.29021089 22.47949456
W 1.22911395 21.06659955 24.13245415
W 49.04283569 19.43626165 25.82122945
W 1.47524149 21.07805911 27.80274734
W 49.03160052 19.20478012 29.27229960
W 1.40606633 20.99115490 30.90170620
W 49.02644847 19.48126330 32.63426758
W 1.23997103 21.13433537 34.18273323
W 48.85224412 19.57054535 35.93178402
W 0.96465355 21.06915896 37.44072657
W 48.70425570 19.62068081 38.86217742
W 1.59055018 21.04987495 40.61832981
W 0.24908139 19.59328022 42.36138287
W 1.44794194 21.28228196 43.95297548
W 48.64777486 19.06680201 45.56095168
W 1.52181138 21.15130258 47.18163485
W 24.45829099 31.36435589 87.34526361
W 6.70603221 19.45265613 48.61621616
W 42.53712569 26.06307233 52.24251713
W 15.02131422 11.46334827 60.15608443
W 16.13437658 29.23893886 91.94562040
W 39.17899984 22.43020125 71.87083966
W 6.12775120 29.05011887 48.68328516
W 6.49555646 33.12643753 91.68435460
W 32.92116663 22.70910940 95.23316152
W 36.26309479 17.58505960 77.08848341
W 30.78012936 44.08753270 56.65627972
W 35.94720454 9.03704223 79.12325307
W 35.27311201 19.76403602 78.05453628
W 17.76321335 37.49943653 90.41876260
W 37.38490369 27.64975601 50.32800912
W 6.58722990 36.20852986 61.29977730
W 31.12512686 0.78306241 72.90484162
W 0.88289052 37.65302522 66.37060009
W 37.50042358 11.03422870 83.69020679
W 6.49091895 19.55927241 95.23413131
W 19.64060900 12.02056466 68.52978921
W 6.11750243 33.02503903 88.30364452
W 32.70534435 35.96079412 68.30173383
W 16.68994016 9.66799115 58.48270801
W 27.75203226 34.44915456 63.28719270
W 6.29325091 48.80448412 51.49045445
W 33.10972189 30.20143182 68.01578947
W 21.25098489 24.53824613 87.09911611
W 42.24994520 19.91301429 55.44510873
W 1.20783568 20.61565272 97.24384371
W 48.67987467 22.68077263 0.67581132
W 1.42321321 24.24132178 2.03267637
W 48.53985273 22.61643782 3.76676996
W 1.38019609 24.45146558 5.15602676
W 48.95822583 22.70080089 6.92357519
W 1.54383817 24.49116790 8.43991409
W 48.99170577 22.54215483 10.19719958
W 1.58457459 24.35970317 11.61245773
W 49.07757964 22.74585187 13.50155008
W 1.31249517 24.45555807 14.84676329
W 48.70480632 22.55101173 16.66386018
W 1.14423921 24.05271145 18.43977221
W 48.74132247 22.41182310 20.04184651
W 1.04068243 24.47145969 21.27568654
W 48.69078828 22.80802665 23.16571314
W 1.52209260 24.02325240 24.29482517
W 48.69690993 22.62675440 26.06346741
W 1.50680593 24.28236112 28.05888485
W 0.05856381 22.81535000 29.64818103
W 1.89915312 24.47763097 31.11706839
W 49.03302474 22.91539044 32.55677780
W 1.57640345 24.44222068 34.28131848
W 0.07911718 22.86006649 35.65533591
W 1.55816739 24.31474414 37.48407281
W -0.06872261 22.80030469 39.13628552
W 1.50972712 24.52171593 40.69525451
W 48.65681310 22.76023254 42.28498657
W 1.62495243 24.58927959 43.62343577
W 48.79977494 22.81377253 45.55856612
W 1.69308557 24.53050195 46.94275085
W 22.20727823 22.49860863 92.05612661
W 20.60079944 20.14391813 72.77280662
W 30.97103901 24.53385749 53.67548696
W 33.08837192 19.99813172 51.72329649
W 27.40731158 47.03685247 73.73058669
W -0.00170947 35.52429840 51.84939563
W 15.87843576 42.25740393 84.93824795
W 28.10005068 20.57021257 83.44545453
W 1.22061772 47.45458248 93.81288299
W 3.05879216 5.83241322 48.41534475
W 16.30439427 36.00842635 92.12717489
W 7.71003865 34.79889689 93.83027202
W 33.95547054 17.84257863 83.74645977
W 36.34846716 42.80193613 91.91883411
W 4.29400972 25.29313784 79.03708485
W 22.83737409 12.75888947 91.82120628
W 5.19151744 14.62426292 96.59321322
W 8.12322538 17.84488712 50.76910206
W 24.12471684 37.34376783 80.91216362
W 47.35547376 14.45970994 84.03454907
W 6.79240453 23.19801347 91.92161411
W 1.68226519 24.11990514 57.59687245
W 17.50118658 32.03964970 79.53878238
W 37.54820038 17.60297119 63.52489550
W 6.62865387 22.27769896 82.72499135
W 11.27550777 43.87809635 90.54160945
W 36.70411239 39.39346345 78.39403997
W 8.37439634 17.82402826 53.55397391
W 14.25384536 24.73872786 79.36540991
W 41.16220037 34.35649820 59.93114869
W 48.89276080 25.76655524 0.48938806
W 1.16934529 27.55721802 2.07474207
W 48.87123992 25.82944608 3.68802738
W 1.52075706 27.34574674 5.13991163
W 49.05575144 26.03024448 7.16347324
W 1.47961772 27.90210535 8.41996286
W 0.11227116 25.89529671 10.46148162
W 1.60682748 27.50975426 11.93201730
W 48.95030697 25.95730921 13.25138501
W 1.42514141 27.23847588 14.80084834
W 48.74601383 25.96542258 16.99108605
W 1.42277836 27.49089474 18.08150742
W 48.87398522 26.26945692 19.76054926
W 1.72418843 27.20912786 21.60137597
W -0.01394881 25.82820654 23.05414537
W 1.43239307 27.70636555 24.42787799
W -0.20862769 26.04286535 25.86913179
W 1.70571221 27.40903081 27.92592907
W 48.89130296 25.79888747 29.45358286
W 1.56820774 27.13019742 31.38381877
W 49.05870234 25.71663212 32.71235525
W 1.52276264 27.41805737 34.37776569
W 0.11040864 26.00978197 35.73248021
W 1.47045159 27.60315110 37.38221444
W 48.99116868 26.03688677 38.67570837
W 1.47536087 27.52308210 40.54712270
W 48.88118317 25.94394814 42.05497381
W 1.30919616 27.59158774 43.88301673
W 0.05346469 25.89488563 45.47186892
W 1.29089575 27.58208375 47.26924142
W 6.36558319 35.92795728 55.23336103
W 15.63064264 46.60096190 71.55625290
W 42.26616935 6.06919928 54.95722895
W 23.08682168 9.45052163 61.88541694
W 20.95876296 37.88500907 56.69197317
W 26.03241035 3.50664042 61.76452445
W 3.15272906 13.01634214 92.39093852
W 27.70260807 21.60111299 66.49081382
W 40.77705029 14.63879743 96.81680923
W 8.42695257 44.10373794 90.03239731
W 9.88714188 2.88962071 88.87308239
W 6.62005809 10.12581114 88.39867411
W 3.06865012 48.41283370 66.85345881
W 26.12598635 3.25756996 54.91635332
W 20.60427052 40.27715223 87.78155195
W 40.69028031 4.74027346 66.87960840
W 47.48177814 31.09579259 83.78675152
W 44.01194223 34.17775154 97.06902135
W 9.58333126 13.39394141 64.89962114
W 37.33048713 43.97516709 96.84193485
W 9.29891102 36.20985148 65.45069698
W 16.52933438 3.08848406 61.56467367
W 4.79201798 47.27151901 50.08615706
W 26.46100681 3.10806845 96.05512767
W 42.03634943 0.20561773 89.18920479
W 24.30290301 24.23022715 93.45217675
W 10.55218863 37.48306803 73.02166629
W 16.51275150 25.94435407 61.66327091
W 35.98056175 48.79053271 92.13177423
W 13.73446825 31.53172513 76.32248841
W 48.64398633 29.45699929 0.60183541
W 1.24325227 31.02845779 1.81772039
W 48.54704050 29.25198887 3.76316989
W 1.72529713 30.64896235 5.12912689
W 48.90863680 29.41727204 6.96479224
W 1.59834463 31.27418434 8.39553916
W 48.87052161 29.69690411 10.36632829
W 1.60367793 31.14173112 11.56541887
W 49.07300161 29.30771986 13.12874934
W 1.32486759 31.07987157 14.41221341
W 0.01644405 29.11963694 16.12105070
W 1.41910127 30.75472864 18.44348965
W 49.17829279 29.30323920 19.57221724
W 1.72374772 31.44803238 21.53371762
W 48.65617032 29.37679661 22.79497490
W 1.12411905 30.69001348 24.31654874
W 0.08397842 29.54221462 26.20487370
W 1.56086426 30.94675233 27.97778051
W 0.45336484 29.12775476 29.51816176
W 1.82386940 30.93035256 31.32805760
W 48.68017136 29.21347845 33.11404323
W 1.47735455 31.17887930 34.22503553
W 48.95576474 29.17284461 35.51636560
W 1.77689048 31.02145987 37.85964948
W 48.78766173 29.13596801 39.01058661
W 1.79166401 30.65923815 40.88937326
W 48.98719242 29.12698777 41.79431756
W 1.10178045 30.56665717 43.73568568
W 48.80983505 29.12312741 45.44871655
W 1.15026445 30.57167074 47.02867583
W 47.83872482 28.26257247 69.45978027
W 19.36736288 36.00589637 85.60360076
W 43.84488975 41.09029180 50.03339634
W 14.72500089 38.13043028 53.55512717
W 30.95028449 27.48981210 50.66051925
W 11.63837833 11.14203492 53.55465045
W 44.59380532 26.23226012 77.71000752
W 47.34755102 20.89209074 87.42064784
W 6.29806056 45.99558121 54.80292367
W 29.19067395 42.68810670 55.30134152
W 39.24547639 0.04819590 51.66320208
W 11.51087449 40.63366007 53.10834794
W 16.08232984 39.12056221 51.66742132
W 30.94446408 44.38414677 50.24653674
W 29.15528988 36.86872246 70.85190918
W 17.63248232 44.05880311 53.83904118
W 22.78367551 3.54799934 95.32291281
W 32.73307468 22.71298259 71.51908366
W 17.07689079 44.34968540 66.23974474
W 0.29341999 29.78553707 64.91306590
W 34.15684772 28.17177665 57.18143125
W 24.75144155 27.47107070 87.59945725
W 17.48148833 27.35501220 87.09399616
W 47.57045811 4.87258223 74.78659230
W 34.16358468 47.33503100 90.62856139
W 31.03269006 24.13747839 73.01216908
W 7.42596612 39.95122619 81.79877078
W 16.80325642 13.36289223 65.22291112
W 41.94317919 19.00290733 82.55879531
W 32.70730736 0.01245300 51.71438927
W 48.81942073 32.48085794 0.15540417
W 1.45561244 34.22022606 1.54822460
W 48.89469360 32.63919193 3.35327922
W 1.51395023 34.08722281 5.00835422
W 0.24884069 32.79070612 6.18696158
W 1.14746678 34.20258024 8.39303767
W 48.82381372 32.60043632 10.06452869
W 1.79187122 34.42864523 11.27670468
W 0.20258620 32.82797728 12.53865623
W 1.64381759 34.73795851 14.95579739
W -0.01597123 32.59490416 17.01945984
W 1.78890400 34.47695112 17.91931266
W -0.03795258 32.82692771 19.98540750
W 1.73359453 34.41843312 21.09808191
W 49.11183596 32.83336979 22.93677041
W 1.83993503 34.54902213 25.09427481
W 0.25997967 32.93100997 25.92595097
W 1.60341482 34.30075530 28.14477149
W 0.31448524 32.61570147 29.72416741
W 1.45586043 34.48718542 31.16974246
W 49.00649943 32.76323766 32.50295659
W 1.51886608 34.26994309 34.19467164
W 48.95013996 32.66699143 35.88227295
W 1.71968913 34.08155976 37.77863226
W 0.11268401 32.40368521 39.51975253
W 1.02085381 34.24744834 40.69374697
W 48.77593137 32.65037575 42.60308962
W 1.48191615 34.16220487 43.66646254
W 48.86592603 32.87525700 45.50489808
W 1.50233944 33.87664776 47.06603442
W 45.52651060 29.01955732 48.53462812
W 31.04558375 4.93373176 60.10802227
W 24.44285767 40.59896124 53.72449319
W 40.60895232 37.32459106 46.80452611
W 21.20541281 47.10472490 93.73903222
W 9.79577192 22.75508448 48.91613199
W 29.49723120 6.30648472 82.44620553
W 43.67167875 3.08473841 70.26888375
W 3.39569026 13.21139044 65.08146482
W 16.00965274 0.07470643 88.87365945
W 3.78168173 21.16941897 66.00591962
W 20.01945955 32.34839416 82.93738186
W 48.83752413 42.26286377 51.55186621
W 2.91059640 25.75090252 92.24061502
W 22.81815743 39.16094003 85.84063791
W 17.05414546 36.89020217 83.33637006
W 8.28180876 11.30604571 86.99010140
W 27.31600044 17.62940925 90.54281627
W 3.50385720 35.70549367 95.19864087
W 42.56765545 3.84204927 48.61073225
W 47.48370853 47.12484203 96.77961442
W 1.60399757 45.06946968 73.31712164
W 27.56206840 27.09407972 87.18038487
W 11.55790308 43.97101666 96.63808611
W 14.21650675 40.12129359 83.68102585
W 32.48928230 45.81452719 92.27118681
W 32.20892956 32.81327844 89.13392700
W 8.52712535 24.44350406 62.69648132
W 16.38204070 22.83831148 51.85401040
W 0.76189960 6.51868664 76.68242671
W 48.96227429 35.85094692 98.12865477
W 1.44327684 37.44184965 1.80772393
W 48.94087629 35.95145360 3.54944505
W 1.32960699 37.50694688 4.97554851
W 48.79560146 35.48853550 6.78705632
W 1.23672479 37.40040321 8.02806165
W 48.60089292 35.91681159 9.88493152
W 1.09366017 37.79735222 11.45254380
W 49.02961910 35.67342651 12.97446653
W 1.48025887 37.86671478 15.04300961
W 48.81832546 35.90277929 16.74984179
W 1.52217103 37.50538986 17.81155463
W 49.06084135 36.07586923 19.88546817
W 1.62085451 37.68267004 21.01756989
W 48.88253957 36.01799229 23.25571377
W 1.81857351 37.58766894 24.81623541
W 48.53985954 35.89056848 26.44284020
W 1.11782340 37.20261087 27.59711889
W 49.02779584 35.91541794 29.76535493
W 1.30573600 37.79971006 30.85735235
W 49.08592444 35.89212199 32.82363436
W 1.66552318 37.64705051 34.58965682
W 48.98314330 36.01191290 35.90089219
W 1.39352752 37.36405645 37.45935013
W 48.86698303 35.61035314 39.01097437
W 1.38150299 37.13457301 40.39193370
W 48.65985128 35.93424070 42.01811336
W 1.24821439 37.13741499 43.61669935
W 48.97799286 35.96731075 45.34778156
W 48.98980439 38.88517353 47.94081981
W 32.64780599 39.31155926 58.10835239
W 16.39845080 13.23404314 95.63755931
W 6.36990864 39.22191531 95.41318786
W 45.60382456 32.16144017 48.59857163
W 19.67098797 48.92184395 52.03768901
W 23.58464601 25.22559125 65.61521720
W 15.30511719 8.83861185 74.87929763
W 35.77380630 19.44068774 58.81193905
W 45.57663414 39.32190034 91.92692558
W 14.80799097 37.42661171 83.89853657
W 11.25633793 31.05878815 93.32818359
W 30.68477981 27.46230465 83.90300594
W 3.26287850 3.46071671 58.48379380
W 29.53975106 45.65514188 58.44172295
W 32.34047325 16.56295783 72.28854172
W 22.85251348 48.87360034 48.49157422
W 47.69341310 8.29966174 84.00474555
W 30.85300248 7.84771863 96.97972549
W 18.32539164 44.12713157 63.40789464
W 15.86921211 25.41396777 75.86769104
W 29.56110016 6.47263920 52.03126152
W 22.23966553 19.39212678 95.47158677
W 13.74279414 22.21841693 74.15832728
W 29.16367226 42.61776514 85.88413150
W 7.66353113 31.40223627 87.57328264
W 2.04120000 9.21855282 70.08971842
W 18.15568813 8.29745716 96.97080250
W 42.67287187 26.18582330 88.66364145
W 1.55701795 34.18597096 96.53363839
W 48.78155549 32.86463344 67.69849881
W 48.39120239 39.00163231 98.09416560
W 1.98721482 40.96153369 2.07891929
W 48.99735916 39.06397768 3.04562568
W 1.37913302 41.06533255 4.97305743
W 48.73375486 39.24885518 6.24833071
W 1.39368115 40.92372670 8.28028052
W 48.95004698 39.34006858 9.76538702
W 1.60382482 40.79800565 11.75197206
W 49.00454951 39.53751053 13.16976389
W 1.13682682 41.04372602 14.68505827
W 49.01491696 39.15965667 16.67737396
W 1.88335528 40.84545805 17.70319428
W 48.89199116 39.19053881 19.83200479
W 1.53180262 40.84519918 21.13457181
W 0.08775655 39.32216346 23.03462192
W 1.46281802 41.11271054 24.69116092
W -0.00802596 39.03519525 26.20072993
W 1.72740414 40.47479661 28.10139696
W 48.86419860 39.11471414 29.29160701
W 1.90763185 40.98189404 30.85387306
W 48.85603696 39.29364804 32.92985966
W 1.75652321 40.78542323 34.37033548
W 48.87199171 39.28871790 35.89874634
W 1.67616331 40.67650726 37.11436306
W 48.90305431 39.07155700 38.84293029
W 2.22937572 40.30917416 40.07608758
W 48.90556746 38.71683184 41.86555921
W 1.72577155 40.68223477 43.41437384
W 49.02886650 38.96407827 45.16641913
W 1.49484730 40.72801635 46.85954965
W 45.64480483 42.38480310 48.48373356
W 28.11654460 36.04743710 78.23257131
W 24.55631308 14.40719350 53.16497269
W 29.55395841 26.31783043 55.32867674
W 26.67110134 6.21938798 61.61737801
W 12.47396262 26.11706571 58.15857027
W 29.39662077 32.73287325 48.75303892
W 3.33303084 35.95942435 58.30683793
W 44.30630400 24.81702018 59.80712970
W 15.20649432 18.97580088 80.97537906
W 6.25979665 2.88406451 75.91270666
W 8.34143248 14.87457957 73.79751151
W 18.74275116 0.64754129 70.68100364
W 47.10681860 20.96581740 97.10647820
W 9.61619613 45.38527363 48.35323004
W 45.42556263 48.87618464 55.16653164
W 21.49520887 33.49554668 64.05986643
W 19.28954860 12.77225010 92.16722705
W 8.14700584 40.82913102 90.49580907
W 31.04744307 1.08460856 90.32573926
W 11.59336564 11.29576737 50.65657673
W 27.74863100 44.04631751 97.09070845
W 16.04033326 41.82827476 73.78454932
W 5.02196295 40.99544431 59.62559748
W 32.14826570 29.31120146 58.35701479
W 29.16901108 45.67084946 61.64258260
W 47.21264152 38.06377869 78.09845766
W 16.61152458 19.50945052 89.13345909
W 30.25997543 30.96095424 80.77564181
W 1.44446369 40.78243897 90.66863650
W 48.79516843 42.64581285 0.22423422
W 1.58586976 44.15806685 1.84826650
W 48.92567589 42.65564929 3.31370162
W 1.64280682 44.28408782 5.22628315
W 49.02668433 42.34349481 6.61322571
W 1.73785636 44.34738419 8.15500231
W 48.82547847 42.44457231 10.10933201
W 1.54970483 44.16816641 11.62259455
W 48.65001702 42.62678904 13.06582713
W 1.36111365 43.98174966 15.07628358
W 48.82170827 42.43377209 16.40115238
W 1.79041691 44.20304275 17.97600670
W 49.01422375 42.47039078 19.61880385