13500
Time=99999.99999996 pbc="T T T" Lattice="49.38779130 0.00000000 0.00000000 0.00000000 49.38779130 0.00000000 0.00000000 0.00000000 98.77558260" energy=-101886.20854044 virial="-4644.60798084 -30.60124860 -55.38702036 -30.60124860 -4996.31609191 -291.41608419 -55.38702036 -291.41608419 -3030.58162189" stress="-0.00228129 -0.00012701 -0.00022988 -0.00012701 -0.00374105 -0.00120951 -0.00022988 -0.00120951 0.00441768" Properties=species:S:1:pos:R:3
W 48.66490717 48.82257344 0.75589746
W 0.77705758 1.06760365 2.22405528
W 48.83595521 49.01055836 3.77275292
W 0.79336178 0.82507368 5.47386157
W 48.68615678 48.69321398 7.03887564
W 0.83878411 0.81174848 8.84263638
W 48.54219316 48.82377510 10.19461247
W 1.09605888 0.72726840 12.00228378
W 48.79738475 48.50301655 13.30277575
W 1.46177560 1.39691197 15.08483054
W 48.68496956 49.11313379 16.56181722
W 1.01896800 1.06542897 18.18856600
W 48.46506877 48.56946310 19.86717678
W 0.58996322 0.83321463 21.12341052
W 48.69292959 48.30108427 22.69997505
W 1.00743690 0.90583920 24.37430741
W 48.60737209 48.46202405 26.09878180
W 0.54416528 0.66392849 27.85200405
W 48.61095831 48.54789090 29.27361654
W 0.84364584 0.70787059 31.06338957
W 48.45704702 48.94944478 32.75425302
W 1.07365570 1.04357517 34.29266402
W 48.60451806 0.11325414 36.03486149
W 1.06597701 1.21709167 37.24627616
W 48.52428997 48.99001274 38.97213340
W 1.34507862 1.14593702 40.70069159
W 49.08941602 48.59953551 42.11377779
W 1.10295828 1.41020489 43.53935337
W 48.79279917 49.02757371 45.10931438
W 1.13258326 1.08631340 47.13026291
W 49.02208407 48.86074928 48.49787131
W 44.47913834 16.39229539 54.44483758
W 25.19343075 5.45374781 63.71955306
W 13.72265217 30.44197000 88.02205695
W 3.34263271 27.02730366 78.75860429
W 4.31085985 4.31049039 54.06054675
W 25.39389916 13.67610701 64.27159237
W 39.06179814 4.42238558 70.63283024
W 18.25707402 27.96080369 78.90205679
W 21.60280232 13.97769286 60.27648608
W 15.30089293 11.82198392 85.21439506
W 23.89555242 34.18579893 71.07042017
W 24.07090078 10.42089486 97.39520322
W 30.60426477 8.76189883 69.01904894
W 44.17689561 17.01905643 91.34046221
W 16.52680786 39.73761557 50.58939853
W 23.53921629 47.35805272 87.35759962
W 32.87475191 3.90458515 94.59300271
W 21.37094759 33.00968822 55.32784618
W 43.18133986 41.33571519 87.11719439
W 28.39109546 46.34471046 58.88237249
W 15.00381899 7.49457653 75.37573452
W 23.58508125 47.79588588 64.31425617
W 28.34737398 47.92897221 86.18612531
W 17.01189896 30.57750986 94.72799887
W 17.05427180 21.68660277 66.75908548
W 4.31193403 21.46895190 59.05720113
W 19.09179617 15.45669126 93.43963637
W 46.36362032 4.77234701 76.30336392
W 0.75182027 4.04041874 97.84961879
W 48.38818316 2.71416646 0.22770174
W 0.89302204 4.19260947 2.29016199
W 48.73619757 2.54420873 4.05624359
W 0.84649411 3.98990650 5.50737741
W 48.59015986 2.44409104 6.95665179
W 0.95811481 4.24372122 8.54935024
W 48.90673730 2.45181803 10.21647724
W 1.31179147 4.34283961 11.98345229
W 48.56799567 2.38898207 13.08708642
W 0.78870607 4.48568289 14.96514979
W 48.51047155 2.76303803 16.08711750
W 0.80949876 4.45297056 17.97726596
W 48.68381327 2.94834337 19.68327921
W 0.77176861 4.23123309 21.37133855
W 48.67866145 2.55600817 23.00590613
W 1.06049321 4.21363167 24.50194467
W 48.93628619 2.49492934 25.89545817
W 0.95890165 4.35730844 27.95853779
W 48.64563476 2.36455527 29.30836629
W 1.01039454 4.24755175 30.88580624
W 48.86023388 2.64202946 32.61398479
W 1.01250060 4.27401761 34.10014840
W 49.01406626 3.01768518 35.71504466
W 1.45590808 4.27242465 37.39512561
W 48.88399673 1.97890892 39.04019147
W 1.13562785 4.35330910 40.27629026
W 48.50763055 3.26894146 42.19355651
W 1.01762919 4.50578022 43.56923064
W 48.64101843 2.78876308 45.25589404
W 2.47550035 6.15470956 48.68170990
W 44.74450418 38.25675698 82.96413081
W 6.89804093 41.13460554 62.54968806
W 0.33460440 12.10160001 68.34631456
W 19.93886893 38.16200037 61.33051034
W 9.66800793 31.26388851 73.74367076
W 45.60389207 48.91437638 48.62617969
W 38.75726320 24.77412707 58.88663380
W 33.93727442 37.05673826 97.57813384
W 7.28268582 11.40951460 61.35963095
W 48.73149791 35.67574295 48.48307916
W 36.10446949 46.45692175 74.35108924
W 35.18930010 13.26994894 77.52820620
W 16.34003630 45.07965886 82.76071086
W 27.66980870 37.72825940 53.40315505
W 4.55282510 8.97002392 60.08100151
W 25.68981334 49.00874888 62.82865241
W 38.99630350 46.36442673 63.05555908
W 29.81253567 41.98249981 74.04615511
W 11.71705112 1.92629434 89.44322141
W 30.16490006 10.76946861 57.34893485
W 12.55159532 17.81443984 56.95946986
W 32.16176081 19.16742511 48.49811644
W 0.43922033 36.16130398 90.27806388
W 9.04364566 16.66716255 78.40286620
W 38.11325373 36.20311069 62.28570087
W 9.65547866 25.23462626 62.85267458
W 7.23870831 27.93899853 50.17195809
W 47.93406022 0.83635853 85.43707806
W 30.11718558 39.71933902 86.68129312
W 43.47158743 7.43139169 94.33872097
W 48.69037419 6.06037610 0.57361984
W 0.70637662 7.78412056 1.90598175
W 48.81870218 5.57867371 4.38643920
W 0.98394574 7.72691177 5.58093434
W 48.69955274 5.99826554 6.84237194
W 1.00336092 8.02116324 8.88402427
W 48.61055563 5.64047573 10.15300407
W 0.37236594 7.70750826 11.63118723
W 48.97997880 5.65129405 13.09867204
W 1.11325784 7.51600717 14.96386488
W 48.43999453 6.11428179 16.24962479
W 0.49292702 7.29768142 18.40197691
W 48.52467893 5.81943956 19.81255411
W 0.92092661 7.38238524 21.40750796
W 48.64395898 5.99018510 23.18927043
W 1.20897050 7.60426304 24.74036107
W 48.88178813 5.95364815 26.20437327
W 1.06187762 7.27541856 27.58083037
W 48.35093558 5.95268820 29.65159985
W 1.26821788 7.53370504 30.79254435
W 49.13133719 5.89319859 32.60635029
W 1.15291366 7.81712488 34.36104387
W 48.62260667 5.99846958 35.62560907
W 1.00119437 7.51572067 37.29877478
W 48.67255022 6.06210302 39.16879923
W 0.97989939 7.45029848 40.71412547
W 48.72688874 5.85064625 42.12441747
W 0.97891682 7.44050965 44.36041941
W 48.51211733 5.97589863 45.66437690
W 1.03727921 7.40486896 47.07491589
W 37.41210885 3.06831123 60.62761090
W 13.11712584 5.72918607 51.95733877
W 16.56215394 41.10141643 58.86220826
W 30.36693189 36.00607637 71.44834053
W 21.90782330 39.02205045 52.18891454
W 8.92531071 16.14793054 48.97864312
W 24.18018858 35.91904836 63.15970404
W 4.96580403 10.17926863 67.90012889
W 25.97868350 34.83008179 49.49016143
W 26.85875003 5.08020959 75.45347877
W 44.80978160 18.05277011 85.69382159
W 22.89393016 45.35196776 62.26066195
W 46.34573652 2.62864071 77.97216348
W 15.62743376 19.03967379 92.91947675
W 44.80810002 11.78606205 95.95026045
W 40.44371484 23.89774947 97.58670455
W 12.38967733 32.74128477 66.50774815
W 9.65809312 37.97316375 89.21517464
W 1.33663303 7.87494492 50.75635027
W 10.16840450 32.52142641 63.43353146
W 2.65954768 35.88918716 66.87131698
W 28.78766500 25.54988717 92.91718627
W 33.82316767 44.44476374 94.36350525
W 31.66796966 0.34229110 70.49344970
W 30.82164252 12.79593469 72.44492087
W 11.78671552 42.20745097 86.03729039
W 16.16515961 1.07699729 85.81452614
W 11.25306387 43.75869647 50.79581278
W 46.55512717 4.19951115 82.79043300
W 0.70079355 33.45694705 68.29501239
W 48.31394420 9.13569271 0.82193244
W 1.38248113 10.44403930 2.06589292
W 48.67902700 9.38886390 3.96478266
W 1.01633998 10.63463040 5.14904558
W 48.51225466 9.13942639 6.59022919
W 0.91154664 10.80267914 8.04292598
W 48.94698936 9.64065576 10.05530970
W 0.99448318 10.90418257 11.97785468
W 48.77503444 9.20484444 13.30579164
W 0.80500288 10.58329993 15.19049872
W 48.40549628 9.24708849 16.61430093
W 0.79679989 10.93412288 18.32184651
W 48.78081890 9.28291028 20.12156231
W 0.99621424 11.19162394 21.24135706
W 49.12715947 9.49870525 23.27806356
W 0.91299305 11.39632884 24.23181856
W 48.59440806 9.12481870 26.10744853
W 0.91353807 10.70668970 27.43233247
W 48.54821829 9.07158039 29.42041811
W 1.00708989 10.68205438 30.57648225
W 48.95332236 9.00007103 32.35271411
W 0.77460828 10.81902588 34.30529659
W 48.72610182 9.00631375 35.75281280
W 1.02355374 10.96233257 37.30653506
W 48.94765846 9.42144187 38.49039831
W 1.45965877 10.57165045 40.61830339
W 49.04118222 9.21152438 41.84966794
W 0.94080343 11.23470725 43.69504172
W 48.84072352 9.55178972 45.42890068
W 48.38681558 13.17651108 51.79033766
W 46.78009511 13.85558544 94.56798664
W 9.95421069 11.82766684 52.92948508
W 29.47676522 38.25965715 59.01589903
W 1.52383817 16.82970937 68.96257108
W 9.80208961 48.05866659 89.39349533
W 48.00023771 7.44662796 72.62577087
W 14.07483484 25.30123170 84.94730800
W 19.33189797 35.58101225 76.33264092
W 11.15680721 36.97373615 53.82670656
W 19.75667953 42.24210010 68.51434045
W 35.22122819 2.22604605 85.68905288
W 1.67184647 5.81308838 89.21374417
W 19.10165773 33.91038705 81.37609590
W 37.74367148 8.71316175 81.85853342
W 6.70636847 24.00636136 78.27776096
W 40.56178882 47.48200391 94.55612056
W 1.43533957 47.55379037 53.41137896
W 40.74185371 27.74479414 56.36578231
W 13.63007898 10.55701166 57.22579805
W 1.03822784 43.82725817 84.04996487
W 34.61032142 48.86184845 64.23694694
W 15.69522148 29.06054877 87.16610720
W 33.72748712 44.04215403 76.81812613
W 21.68395169 20.65348869 68.44929414
W 1.53306707 30.01343515 82.58946686
W 29.39241331 35.80331995 74.33352768
W 6.73381336 37.93131246 88.12350853
W 1.00562243 1.34644929 50.20261373
W 16.99243278 20.88750412 54.16812360
W 43.80355302 4.45280188 56.45237452
W 48.17840196 12.61867292 0.72781176
W 1.45881680 13.85420457 2.10014432
W 49.02136790 12.15107950 3.40894410
W 1.20424984 14.21246620 4.97728793
W 49.02018382 12.15561687 6.42071996
W 0.87391777 14.06945573 8.28056742
W 48.81874561 12.81564024 10.14762316
W 0.79355293 14.50667317 11.80277928
W 48.91147022 12.40783894 13.47285354
W 1.05815925 14.18437898 14.86223107
W 48.77012885 12.34848607 16.63554948
W 1.26493453 14.44366680 17.72882395
W 48.85978560 12.57877496 19.71520261
W 1.16084982 13.87015638 20.98800627
W 48.26100499 12.58503445 22.41956743
W 0.62588219 14.07478719 23.89676647
W 48.78272027 12.85166990 25.94522303
W 1.19076754 14.12775749 27.60239967
W 48.76846749 12.38984171 29.19693360
W 0.86840709 13.84487417 30.68040288
W 48.84939236 12.58452006 32.46218752
W 1.09369326 14.14521434 34.13758077
W 48.88272656 12.39995734 35.55876734
W 1.21400526 14.42372832 37.32740738
W 48.97204978 12.40904375 38.87393017
W 0.93414057 14.32809418 40.50271896
W 48.92572742 12.35870840 41.99886245
W 1.07667891 14.15980645 43.64284690
W 1.06125037 11.17148698 47.03337419
W 48.99426965 12.91799273 45.30143572
W 44.01477180 11.12533800 46.83999684
W 38.20573758 25.60630543 96.09519784
W 20.31000223 33.31036671 57.89127614
W 4.11074866 30.24981067 91.01332148
W 34.95589969 23.20519436 83.17539036
W 26.98411135 14.30735655 94.64854626
W 6.17520672 45.10416975 70.62467610
W 5.41580241 31.80302357 60.57139608
W 26.83346689 40.56838800 88.70930590
W 43.60981976 8.91205746 82.57327044
W 4.81480877 6.54771121 60.61248313
W 3.62505414 45.87049496 82.13098882
W 3.66775759 10.68552685 94.50763918
W 33.77232810 16.87764469 97.59523611
W 25.37300867 7.74802703 76.73883033
W 7.10984613 46.90591168 54.22080452
W 5.07266402 32.10269129 95.99417332
W 6.81166621 18.46964540 60.30399005
W 40.38205570 30.99071367 63.12990025
W 32.38142366 5.63287578 51.13343140
W 27.58592552 40.94329007 68.48949323
W 29.87996195 27.26392335 88.21917485
W 36.51781662 10.81916551 91.58545544
W 4.98328255 45.18664570 66.15100993
W 4.22047798 46.01960275 75.76217162
W 22.44688762 41.82363735 85.67719658
W 6.62714366 8.37488330 62.20021739
W 36.65578483 23.92900064 97.67959663
W 28.68407737 6.14925781 89.62701946
W 44.77372329 38.84225289 89.72755019
W 48.39334648 15.53975732 0.35547040
W 1.20851797 17.63885277 1.64575174
W 48.98160635 15.91213675 3.44103041
W 1.14488818 17.29418639 4.93032120
W 48.55172589 15.94072749 6.64999342
W 1.00971666 17.48246630 8.95091495
W 48.55054906 15.82701584 9.58622425
W 0.37800781 17.71907529 11.62338123
W 48.42367449 15.97940862 13.42275003
W 0.66993871 17.50490319 14.71035779
W 48.65436958 16.42319102 16.55141217
W 1.05849295 18.04500355 17.85393349
W 49.12728249 15.68601834 19.46730192
W 0.99692932 17.58495094 20.81488073
W 48.27853390 15.75007990 22.73137382
W 1.02402158 17.08597938 24.22170996
W 48.43336196 15.45428805 26.24548096
W 1.03957696 17.31931720 27.59398935
W 48.87338591 15.78922910 29.10086992
W 0.87459071 17.52497157 30.71062528
W 48.82357515 15.95245208 32.18238249
W 0.88464093 17.22764622 34.07261051
W 48.95399376 15.76552293 35.93356656
W 1.06153519 17.81993224 37.42730136
W 49.16126955 16.13688149 38.85513910
W 1.42742186 17.70136263 40.58359548
W 48.77341567 15.90807033 42.14878750
W 1.16550865 17.49630503 43.79946398
W 48.63350904 16.23135894 45.28928271
W 48.19623865 19.38431687 53.03157556
W 23.11759714 32.10479249 76.41186011
W 44.61449747 30.04736841 70.41928863
W 45.98066000 17.00620204 88.68472502
W 1.61161186 17.12149477 59.33870459
W 41.73397810 15.84188683 67.41696960
W 12.48920848 44.35784594 61.07874641
W 7.37790083 21.66579019 59.40920002
W 47.55047870 4.82835132 78.97240222
W 44.07440783 43.81576253 53.11545055
W 33.24927944 25.58227400 58.60761768
W 48.73356402 44.47866807 67.49010028
W 16.04099645 48.11123695 74.58212357
W 4.00726090 14.27748823 94.44400700
W 32.99165689 24.81305014 81.40278496
W 3.63079898 40.62647893 86.91590391
W 20.56617757 14.96720494 88.39963300
W 30.44910295 13.07636308 58.72211560
W 38.00732779 46.75234476 65.75649452
W 4.75326108 37.23667911 49.96633183
W 36.71149887 23.91518881 94.44260900
W 45.77711451 35.67569617 75.02446109
W 10.61294578 37.07786278 97.85809108
W 42.47450621 3.25926742 64.43622078
W 14.26818244 43.99137274 50.26717637
W 21.97531820 43.85758544 69.15970250
W 35.44537660 5.54588036 51.66343041
W 31.97636057 6.06682618 54.78249167
W 4.10445779 23.79295189 97.64904115
W 48.97827747 41.98033586 95.88239389
W 28.60468883 48.38571794 56.80596013
W 48.58859822 18.97646813 0.58782921
W 0.69146252 20.83091994 2.04431605
W 48.53722302 18.97191908 3.94940226
W 0.89495570 20.54068079 5.05466458
W 49.13391296 19.11755395 6.92915433
W 1.44327760 20.64438169 8.62584593
W 48.52748989 19.35777229 9.58480739
W 1.02851046 20.69645106 11.58783869
W 48.71437878 19.20737219 13.21534506
W 0.69510198 20.80367330 14.84710329
W 48.51532742 19.36838271 16.18470405
W 0.72512788 20.92284556 17.63112383
W 48.57687149 19.55762716 19.37632061
W 0.60780436 20.85907022 21.09623950
W 48.64889839 18.79790632 23.03392795
W 0.69722738 20.69221308 24.28991258
W 48.94417227 18.83235390 26.11116720
W 0.70064232 20.34841494 27.77128860
W 48.61256883 18.62007525 29.28259482
W 0.98351601 20.53975150 30.69507234
W 48.65622082 18.82588130 32.64464424
W 0.88409438 20.58105203 34.10282398
W 48.45857679 19.00525359 35.61619948
W 0.65950555 20.58731238 37.09198756
W 48.85883198 19.25148656 38.92230978
W 0.59980554 20.57461350 40.76571266
W 48.55859260 18.62696098 41.97287669
W 0.68403266 20.61749502 43.92147839
W 48.30229724 19.14628049 45.47481397
W 0.49696169 14.82178245 50.16974468
W 28.43309293 38.53898359 74.65167124
W 7.53268267 21.22226049 50.04414233
W 42.91114255 26.61349578 61.91499040
W 30.57274507 22.80410802 64.76700378
W 13.52051984 17.68934418 91.75334276
W 16.46914601 29.72776550 63.93231318
W 5.36806521 28.43056210 48.53937770
W 8.86997319 26.71613979 87.41672555
W 31.93928878 22.39779621 96.23215159
W 2.98800358 22.30661802 72.42638756
W 45.47345015 43.59251400 64.02041912
W 6.77422886 25.39643219 71.28744334
W 3.61171159 18.35266711 81.92715510
W 14.08925690 37.29380742 87.30561470
W 33.63616769 24.01837512 46.88260407
W 9.45866234 24.38414020 67.24055382
W 36.27178122 28.80668564 66.76737898
W 17.15869433 16.83143170 73.42708991
W 44.08279966 35.12631221 81.07856405
W 1.79341184 13.03613633 91.98782276
W 32.64162916 23.91233699 66.54626278
W 2.36693547 25.12667805 95.89026205
W 29.71853790 38.55511848 69.97594979
W 8.49508123 13.87425068 61.06615017
W 42.12893247 35.14347262 55.63880158
W 4.35566618 46.77214084 50.77374531
W 23.12314940 32.28633779 73.84045037
W 21.26748752 14.57773000 81.47389136
W 47.03379970 14.47758678 49.91426688
W 0.53853605 20.51983148 97.85944509
W 48.46656446 22.20766535 0.50310968
W 0.70888065 23.68688051 1.94286882
W 48.73822449 22.38743867 3.75719260
W 1.11388961 24.21703203 5.13889792
W 48.01845639 22.22384820 7.07543843
W 0.79559385 24.33101776 8.44146398
W 48.58745330 22.27511784 9.89758619
W 0.86414523 23.91908327 11.46683140
W 48.45786975 22.22719411 13.35612721
W 0.97574770 24.06077590 14.87369239
W 48.46033145 22.71999331 16.47929466
W 1.00802953 24.15466379 17.99791463
W 48.43717775 22.68430406 19.34888530
W 0.75785430 23.87232838 21.55506081
W 48.65713177 22.23816559 22.83434553
W 0.85886636 24.01520099 24.67985080
W 48.50376732 22.34066013 26.29246385
W 0.84755164 23.85883716 27.76461901
W 48.83197624 22.27344193 29.42621149
W 0.72169501 24.08055406 30.97252262
W 48.63644064 22.08670528 32.90545855
W 1.18968680 23.99954652 34.52407181
W 48.48839622 21.91545939 35.73410221
W 0.93438837 24.15650378 37.66690608
W 48.69121849 22.19767823 39.23812683
W 0.55513700 24.00395568 40.66081855
W 48.26187702 22.44540664 42.40259698
W 0.64280821 24.20322495 43.91180837
W 48.79610328 22.39164702 45.37346333
W 48.73325335 25.94077640 45.33690969
W 8.93501524 16.84302203 90.54635001
W 47.50679890 41.47995122 72.20995900
W 29.66441141 28.03375737 56.94980862
W 30.76232583 24.06021597 53.82939365
W 12.73892440 11.61880502 64.54116969
W 43.81264487 37.16056688 53.55702284
W 9.58808473 10.33384806 80.83732523
W 33.69539706 13.98879473 50.11727769
W 4.23374704 0.82512570 94.57802308
W 3.96727700 7.94046612 50.41740890
W 23.69141780 34.12832088 94.76151914
W 7.26479442 30.40206147 95.07350334
W 25.32649742 22.06587087 93.28491020
W 18.33923165 44.79862138 68.11044378
W 8.46388672 11.67530672 72.57206324
W 16.58789116 5.89923512 84.13913296
W 4.66365827 13.69470308 97.05976889
W 3.01330810 12.66443009 51.71278833
W 25.16588475 33.14857205 83.78022852
W 33.72005467 20.40951572 78.97941034
W 14.86460680 32.89100683 80.60111136
W 6.10561363 25.83198869 52.03442945
W 28.34648989 41.72431039 62.97409273
W 43.12401475 7.45342661 62.98068338
W 38.64323911 22.38431987 92.56036949
W 9.79138919 1.44660132 87.84509415
W 31.22662191 1.85272249 80.11444010
W 19.37915788 29.07652164 54.53222652
W 32.23547433 38.26497483 82.86810015
W 26.06505253 43.38174946 75.82222998
W 45.55337983 25.54591935 0.78669004
W 0.93222564 27.17879918 2.23220864
W 48.85184765 25.55446017 3.68876462
W 1.21281614 27.26458991 5.16704270
W 48.62083577 25.36775260 6.93246938
W 0.82207571 27.48406853 8.37968899
W 48.68893655 25.63714476 10.16033231
W 1.01148946 27.23136040 11.60190830
W 49.08868898 25.53838397 13.22366099
W 0.72623119 27.32212721 14.81865135
W 48.80250535 25.67190393 16.41747287
W 0.81890496 27.25528764 18.29354437
W 48.47189932 25.54083327 19.68515327
W 0.91536553 27.32589540 21.16922689
W 48.58344944 25.41045155 22.86064562
W 0.44070898 27.23511817 24.57452888
W 48.83132111 25.43541422 26.15464555
W 1.08509053 27.37366892 28.03908599
W 48.33131398 25.51974255 29.16758638
W 0.81318646 27.20940112 30.82451019
W 48.16157607 25.54817463 32.77552086
W 0.86229522 27.30576568 34.17828059
W 48.81632757 25.59479608 35.97223267
W 0.84532945 27.16484974 37.55598434
W 48.42378534 25.51673704 39.25386025
W 1.23247725 27.36392208 40.55832039
W 48.65664766 25.84391738 42.12471822
W 0.81388934 27.51338031 44.08175539
W 46.50653812 23.85686484 43.75093792
W 0.88068525 27.50948190 50.07702759
W 43.91900230 4.37195463 67.89466597
W 40.26060212 11.95463524 73.55433587
W 46.87998551 4.08321815 50.41670555
W 30.19332753 32.81101121 56.12898522
W 34.27583969 41.51548898 59.48572188
W 44.00664179 13.41965718 60.47734667
W 46.06054116 24.36803513 89.96812446
W 21.35592037 31.63591180 86.76196053
W 38.66763585 15.59219576 96.46131500
W 22.08297470 2.44856673 92.24896068
W 7.72156890 10.68456453 87.34322489
W 12.21113450 14.23799194 69.40491082
W 40.27876933 1.30403392 53.46801997
W 24.22419689 13.38406304 72.46367328
W 25.66920278 41.77579786 96.18745032
W 26.12686382 3.99952635 65.99354023
W 45.32751271 25.93122505 62.00560968
W 43.48316794 33.80522413 97.46458278
W 3.75332615 32.74061546 70.32791348
W 37.18546381 43.32126376 98.08933930
W 14.17448639 40.44137870 71.41618901
W 24.51925667 6.74116576 74.44958853
W 2.60206250 45.57098687 49.01741630
W 40.08742085 4.32801088 94.54219230
W 49.01196396 49.15655253 95.99570698
W 25.89134591 22.81409713 96.45114217
W 18.88237555 28.99018131 93.30062510
W 23.52832241 22.91426556 69.45444811
W 33.70855760 10.39653580 91.36279497
W 10.71513106 35.71008047 63.76616593
W 48.51626898 28.92395611 0.63905585
W 1.00919824 30.86277382 2.27463403
W 48.28277284 29.25140857 3.55650821
W 0.79274942 30.66616097 5.31141321
W 48.54693348 28.84873132 6.86097517
W 0.32401483 30.30129648 8.40311899
W 48.82289223 28.55310328 10.39815521
W 1.11835648 30.24485255 11.71156461
W 48.29944527 28.99160324 13.66536631
W 0.98846592 30.70624742 14.81908319
W 48.47547257 28.86321453 16.49786192
W 0.92621292 30.67414815 17.99494417
W 49.02002792 28.91452156 19.86532638
W 0.74530896 30.67964755 21.26423683
W 48.85824131 28.96647633 23.32460830
W 0.91989305 30.58292647 24.70677278
W 48.95815604 29.16780030 26.40644434
W 0.92922125 30.47133598 27.96951580
W 48.78823431 29.02649294 29.44701066
W 1.17290149 30.73887728 30.96704561
W 48.39097160 29.15919268 32.75065662
W 0.78597399 31.04734232 34.14834755
W 48.99201329 28.96189168 35.80382517
W 0.92428018 31.00390534 37.33112978
W 49.02102060 28.74504378 38.88992404
W 0.98356957 30.56320917 40.61642651
W 48.89729055 29.15365154 42.40356210
W 0.85581924 30.75812619 43.99517628
W 0.73536554 27.88286890 47.28664180
W 48.40355470 29.35847652 45.46909804
W 4.38811138 34.56217894 68.34206774
W 27.83377196 10.73980724 87.84570105
W 43.66108409 41.46571547 57.34635467
W 25.04330625 27.49671352 58.84603370
W 26.02583964 25.16715353 52.21417057
W 10.90000003 11.27519665 57.08062309
W 2.60630670 31.40523877 63.66135773
W 47.54693377 16.19593939 94.03392957
W 7.22407761 44.31480182 50.48211876
W 35.41472220 42.34619841 51.88685741
W 39.16981865 45.77195604 51.80926040
W 12.34800236 5.89650885 55.42414645
W 15.04568355 37.33497595 65.42250212
W 30.71609732 44.29833833 50.99885605
W 22.65706357 42.26947793 92.96273680
W 25.46133047 39.00803061 51.84922234
W 27.33663215 7.30904307 91.57315038
W 37.93541980 46.69247477 78.13302617
W 37.25514508 36.95718516 69.78491105
W 24.10970108 40.29322925 65.44614337
W 29.50679776 35.46107227 58.17742945
W 9.20841900 35.58971777 89.63443358
W 14.70893487 24.10193237 78.93242637
W 36.05175640 34.21357357 89.95069935
W 35.91578348 45.26812435 96.13690914
W 24.65682842 45.83160483 76.34052675
W 11.14413556 37.42496926 85.33945379
W 40.85833547 5.24014270 59.89843799
W 10.88120519 17.17547132 58.94225144
W 44.98610874 2.20612717 64.40936078
W 48.48130598 31.93111333 0.52523149
W 0.42599005 33.64334530 2.14706628
W 48.39580049 32.26106849 3.72098556
W 0.88330512 33.90206420 5.08949362
W 48.61397278 32.28177508 6.89006236
W 0.89327844 33.67282156 8.38276882
W 48.60246885 32.18189111 10.08987834
W 1.30571020 33.45303364 11.67858359
W 48.62853361 32.24367164 13.17873937
W 1.13629620 33.77869938 14.76558372
W 48.54477242 32.37529905 16.23892274
W 1.14961382 33.51447822 17.97006457
W 48.80947812 32.15005017 19.55037724
W 0.99290323 33.65953269 21.21379925
W 48.78771764 32.23631223 23.08092154
W 0.78787990 33.81848548 24.30242874
W 48.63805872 32.57583298 26.41880724
W 0.51977470 34.04198302 27.71147144
W 48.65376412 32.35443348 29.77081737
W 0.71569289 34.13079637 31.04463919
W 48.52983875 32.52289936 32.76182838
W 0.89775944 34.28152368 34.00156085
W 48.75441002 32.66935174 35.89429608
W 0.99516852 33.98081318 37.47272118
W 48.79060089 32.44069512 39.52169367
W 0.85449301 34.38545239 40.00799304
W 48.41781930 32.61707107 42.19210591
W 2.46472000 36.13314672 45.46670136
W 48.35605163 32.15928231 45.56537477
W 48.44703924 33.35727061 49.40200427
W 47.11143941 27.82653068 46.84332521
W 38.55490798 16.80572093 72.29081914
W 22.58038363 48.98904599 55.98028645
W 41.83124606 39.08384580 48.68465282
W 21.99871931 48.42356912 96.60977917
W 9.38870740 22.44082938 48.82787277
W 31.31017977 5.87126037 89.73509294
W 2.79543472 49.36125423 56.03432758
W 6.26782806 16.21476802 48.48262488
W 3.68119964 48.65465421 80.86871660
W 28.79203066 17.37127913 78.27215766
W 19.22446982 42.85881133 92.63849448
W 48.19207056 36.17717596 61.68115488
W 2.73612458 31.14086936 85.30446952
W 15.96904608 9.16465412 89.29199535
W 21.99366202 38.86664079 73.22207759
W 4.64884635 19.78712351 67.48491534
W 22.46124381 47.72615517 77.02961030
W 6.78990963 41.16200032 92.27607401
W 42.23209041 2.35139905 48.68398634
W 47.17185880 46.94991981 97.81629903
W 9.67947073 45.14272462 64.04126241
W 22.38163775 33.21331477 84.88443111
W 10.24462258 43.14022258 97.55100698
W 23.59631599 35.90268581 82.88279686
W 40.92625709 40.33825938 88.36274217
W 17.81104534 8.12706592 84.81967254
W 44.12060299 41.87801289 60.21486412
W 20.25354529 23.02288258 50.18518729
W 7.65534198 4.35390658 73.16984612
W 49.27826312 35.65340596 98.77650959
W 0.89950101 37.02524275 2.14571430
W 48.37984376 35.09736192 3.73271936
W 0.78787145 36.96788192 5.46582983
W 48.50996649 35.44828316 6.70937022
W 0.93551552 37.35627991 8.15427650
W 49.02360187 35.47372435 9.84470757
W 1.33810036 37.19951456 11.47291496
W 48.57842332 35.52567489 13.16926981
W 0.94787046 37.10051455 14.76328924
W 48.68231105 35.29082366 16.44509263
W 0.94811772 37.37711317 17.53492401
W 49.01881100 35.37154503 19.09324059
W 0.64196979 36.92012129 20.90282345
W 48.56634424 35.46744444 22.98635477
W 0.68157279 37.46053494 24.54615886
W 48.15532107 35.62563625 26.40952744
W 0.87195811 37.47972080 27.81304026
W 48.43506412 35.73059458 29.64929598
W 1.10174934 37.17178967 30.89313336
W 48.55053849 35.71382663 32.80388202
W 0.96470465 37.11285338 34.27886381
W 48.84817054 35.79135151 35.81568714
W 1.33764079 37.26351300 37.39700000
W 48.15830886 35.49415152 39.07797728
W 0.90460789 37.39141757 40.93678925
W 48.54246328 35.97154364 42.35603563
W 4.53594551 37.02553004 47.52126852
W 0.67741024 33.78255929 44.14135669
W 0.65571571 37.37611888 47.11690840
W 16.88658543 35.73490567 54.48160142
W 21.92015384 17.47337175 79.81133620
W 8.66696600 38.18438779 96.24737942
W 47.03465309 31.00345668 48.19017041
W 28.67476813 3.97561135 59.05288128
W 15.91730199 41.99840548 83.40926778
W 24.27283699 0.17214567 73.89509930
W 36.26077293 8.43792382 78.06152374
W 47.25291659 36.73587630 97.35790259
W 2.36838490 3.31148978 72.66977980
W 18.20082809 31.76505826 92.19724727
W 22.63960591 14.72949216 64.36612141
W 37.74487258 12.93362349 71.83543407
W 41.07754982 39.83125579 80.96740341
W 40.72032751 38.18341400 75.88377170
W 21.99654750 48.99030578 48.70917468
W 39.81419808 46.85588643 88.65709204
W 28.83409412 8.99085382 96.17874410
W 5.27451753 38.99355287 71.30531703
W 15.98523984 26.82774288 64.69399498
W 22.64678949 6.08346906 62.39817214
W 20.45001965 23.54233193 94.81787372
W 31.36100926 29.44636760 80.02818429
W 31.49382670 5.16699920 83.41066574
W 45.50371969 31.83372133 88.93138511
W 48.37593958 6.36236810 89.30547374
W 15.78890059 6.16834597 0.52026003
W 45.47125602 34.07015858 72.69024354
W 0.70233658 33.81296050 97.21085440
W 20.67231765 26.47961406 76.49896159
W 48.78895026 38.66476733 0.30930347
W 0.82725721 40.43397903 1.83654862
W 48.42996025 38.69720481 3.50657200
W 0.79162654 40.60417657 5.03854901
W 48.90041377 38.82833959 6.71429174
W 1.07283763 40.67395735 8.15558837
W 49.05986291 38.92547741 9.86017623
W 1.09005703 40.40383524 11.49390564
W 48.74948304 38.33205075 13.13117716
W 0.99449421 40.36904783 14.56597898
W 48.97709221 38.75892341 16.14148304
W 0.74500134 40.43075384 17.82979650
W 48.53561309 38.27362511 19.35193756
W 0.68434055 40.20839487 21.06127838
W 48.69755312 38.86126468 22.28650762
W 1.14682144 40.63260254 24.43529757
W 48.47916274 38.82254287 26.17421564
W 0.76462820 40.50914419 27.31867409
W 48.76719558 39.25894959 29.39587302
W 1.19099928 40.51952377 31.04436274
W 48.56059511 39.10211287 32.87828743
W 0.68142058 40.27109022 34.04242953
W 48.77004036 38.95649997 35.92883650
W 1.02115895 40.75439234 37.62987481
W 48.54445992 38.70218128 38.74697384
W 0.63315803 40.66234840 40.10488690
W 48.77279355 39.00357081 41.89010460
W 1.17085279 40.51493543 43.84393296
W 48.50115439 39.20769123 45.38810207
W 0.99835054 40.32210309 47.22641538
W 43.85379393 43.71546508 50.49062464
W 31.15846426 41.31017705 58.73892616
W 30.10536415 8.44973648 61.29748905
W 22.27533057 24.41163159 55.20939497
W 20.39730690 31.63985693 74.48655735
W 29.14943971 20.04100747 60.24867912
W 30.36321004 31.47671094 48.31944821
W 3.61310971 37.63083368 59.64859581
W 33.45938304 46.44101028 75.37782554
W 18.95160205 22.29689419 87.21377485
W 40.44249341 10.61062608 68.10514063
W 47.14531537 3.68444222 56.80168051
W 7.35095236 29.37057051 74.51502320
W 43.66737576 17.63747988 97.78776840
W 9.37519290 45.40637616 48.93706167
W 42.21731594 6.04062410 54.58566090
W 28.86775329 34.88166896 81.63641805
W 20.60794333 4.13691060 90.93127907
W 12.26516830 45.28532620 79.38786104
W 22.08610857 6.87046003 82.30742043
W 14.95803427 12.54483884 55.05130919
W 28.44359962 45.42566618 96.03607225
W 27.71929456 37.10814489 81.95655403
W 25.36041677 39.78262569 55.57976740
W 35.45023427 26.77122518 53.64011835
W 30.29101221 3.07148067 85.33512025
W 31.01434676 33.96385656 64.87206729
W 11.45955110 19.90516998 91.96212273
W 17.44980303 34.03865063 87.85117059
W 0.76821873 40.64332308 97.76988198
W 48.40798772 42.24394511 0.34181590
W 0.88297832 44.10535605 1.95354756
W 48.52417096 41.99400992 3.44417895
W 1.13566007 44.11595560 4.87356026
W 48.39485417 42.38953687 6.54105825
W 0.76525357 43.99929874 8.09306190
W 48.90704019 42.09995355 9.86321171
W 0.97150174 43.66724940 11.55407179
W 48.91565031 41.85824991 12.79455571
W 1.16041749 43.89096888 14.82942659
W 48.82554377 42.42285984 16.18222792