13500
Time=99999.99999996 pbc="T T T" Lattice="49.73676488 0.00000000 0.00000000 0.00000000 49.73676488 0.00000000 0.00000000 0.00000000 99.47352976" energy=-99682.75269699 virial="-4156.01840184 63.62882550 162.90466836 63.62882550 -4493.54586389 93.48063987 162.90466836 93.48063987 -2814.13380769" stress="0.00013008 0.00025858 0.00066202 0.00025858 -0.00124157 0.00037989 0.00066202 0.00037989 0.00558327" Properties=species:S:1:pos:R:3
W 7.58846500 44.97462987 99.30660276
W 1.84226051 47.62131309 5.49470945
W 40.05778244 3.51109697 3.99315244
W 0.23204230 7.38743127 3.85815227
W 0.82146553 49.60345302 7.26877283
W 2.18053672 1.71394951 8.64472140
W 49.81468665 49.35912966 10.39571035
W 2.05023653 1.63836816 11.90573542
W 49.65190323 -0.00837685 13.56546025
W 1.57173058 1.60403586 14.98664951
W 0.10380456 0.28195624 16.77128247
W 1.80858082 1.95284366 18.05631018
W 0.41935766 0.30550892 20.14538006
W 2.05080363 1.53530388 21.88025209
W 0.01288231 49.55927157 23.24578855
W 1.73105663 1.39437758 24.77613658
W 0.35108020 49.57773300 26.46100896
W 2.01707529 1.41103273 28.05338045
W 0.30443236 -0.09129906 29.24950068
W 2.25213132 1.44075862 31.10633367
W 0.29343588 49.16776424 32.62454775
W 2.18453194 1.30465534 34.42664799
W 49.62256136 1.74425379 38.97699117
W 2.37420021 1.40808419 37.63215825
W 49.68516411 48.21288033 43.76857681
W 47.78720053 3.15827797 43.45732784
W 49.63928458 2.60696623 41.73918259
W 4.82298102 3.93580136 43.78294272
W 38.10890075 7.99969131 37.56923430
W 44.79759651 10.76220826 46.98928911
W 48.52851045 46.14576614 44.98715595
W 39.76173518 17.86521063 51.77983106
W 23.12777349 8.24491439 65.01993042
W 9.07845783 42.56560592 92.14203173
W 36.12367777 36.55806671 64.57287448
W 5.44209723 20.50683841 60.30891022
W 34.86641476 4.89700135 62.95102123
W 17.28758917 46.25712862 73.33995816
W 16.56197521 8.42464192 83.11864724
W 4.26448670 13.24641440 67.99963566
W 9.81372630 34.14971445 70.42166848
W 30.86126662 38.78128053 91.84310961
W 24.99353449 17.08505847 90.67553518
W 23.72770060 43.23305040 91.77588553
W 43.03013937 15.61355207 93.71685068
W 30.64440915 27.52467776 54.81717703
W 40.11644471 29.77577895 93.65668426
W 47.29772397 5.96005158 88.82659861
W 16.48532730 6.11173768 64.19415664
W 29.65537458 15.63828880 98.56708116
W 24.98487179 31.78939851 81.26190490
W 4.16240268 0.88523845 88.73755204
W 26.85915438 45.38619231 72.81045287
W 32.23751524 30.38361590 77.33919522
W 21.20411579 22.01554407 87.08679598
W 31.67254982 13.81264830 51.83559775
W 47.89015590 29.05186199 57.49734556
W 17.63260610 41.54491119 81.25174638
W 7.41363407 47.94604177 91.22057999
W 49.75954011 3.43790272 99.30078200
W 38.34363227 48.93063381 94.38332072
W 0.46745591 4.36088038 4.57955275
W 7.08883418 8.82215452 1.61836437
W 6.99683717 8.41177206 6.73609935
W 0.62079887 3.61955660 7.12078784
W 1.75922612 5.42436349 8.63702498
W 0.02775535 3.91707499 10.43593461
W 1.89120604 5.13733074 12.11341839
W 0.38570470 3.59211660 13.69360715
W 1.87371277 5.31828693 15.20816566
W 0.20187794 3.16716508 16.89808783
W 2.29789910 4.88262568 18.68926729
W 0.18436684 3.37899362 19.85300522
W 1.70902928 4.92171486 21.67841877
W 0.42506241 3.23737511 22.95688345
W 2.35719778 4.49540889 24.60523785
W 0.34053925 3.70928925 26.31317752
W 1.94939991 4.84795013 27.94006191
W 0.68084574 3.15599732 29.34837643
W 2.54695164 4.83544525 31.38059033
W 0.80618068 3.45142147 32.90173389
W 2.54441668 4.45267329 34.60912140
W 0.46566318 2.38894698 36.40132730
W 0.54622728 5.26278908 35.68750297
W 1.82245560 5.06975199 40.55151223
W 4.81224719 4.60041398 41.22526947
W 2.41700319 3.61209635 42.40858197
W 4.63278732 10.42130966 61.77655718
W 4.11590279 1.47303933 47.01962310
W 45.14669406 6.30109649 50.17439599
W 5.95068588 42.67998971 83.82526446
W 4.61477740 15.17959539 53.41265143
W 43.86316477 23.32658235 90.94575528
W 16.61063647 26.99290125 66.79364120
W 45.69129199 35.45570948 83.05661562
W 39.00720115 5.81373792 49.95930100
W 14.43341231 40.12704799 48.69608893
W 40.56749814 48.80782650 85.26023218
W 17.86343313 46.33312299 44.85054988
W 49.28852695 31.87457993 45.54846629
W 25.15672314 36.74577050 80.08593284
W 21.81257829 24.37935890 50.44891206
W 11.22729497 46.58947965 89.04965962
W 36.10562296 30.80127522 45.41692806
W 10.14966547 4.35698339 69.30317468
W 46.38916109 36.15764260 80.41679898
W 26.91835341 15.76533921 56.52303584
W 32.15967246 23.88239591 90.73510481
W 2.88251962 44.23893181 87.12597403
W 28.75394187 37.60109936 53.35286285
W 13.27848332 12.94774352 50.03368195
W 20.23337909 31.74691431 51.36889180
W 41.54435121 42.82538355 98.08265699
W 8.87903022 21.50323695 77.15369534
W 2.01118296 20.79611169 57.85977261
W 6.42547762 44.33055096 76.40881749
W 15.26112599 32.82993943 68.16864392
W 46.50864510 2.07017770 92.63694541
W 24.76553606 36.48694719 82.88162191
W 46.60551947 18.79817278 93.69657655
W 3.61949993 48.28965675 97.31504621
W 2.30542326 9.01884733 2.88804278
W 49.61415191 9.93506036 4.15246661
W 9.03570667 11.07673915 5.96019905
W 0.60643939 6.17504874 6.27030486
W 1.19041503 8.58357843 8.15419065
W 0.12531707 6.54093860 10.22740629
W 1.85092575 7.98070358 11.87505672
W 0.23577727 6.62025250 13.67288740
W 2.05947779 8.50327663 15.44794733
W 0.15369990 6.45608236 16.87765973
W 1.78788480 8.44027138 18.33741484
W 49.42947307 6.58718118 19.79462634
W 2.06906676 8.19337818 21.63638851
W 0.05496565 6.69632449 23.59049842
W 1.79070022 8.13477154 24.82645612
W 0.43396601 6.54342231 26.72712488
W 1.91823416 7.88953866 28.10326130
W 0.09924567 6.61813892 29.69267004
W 1.74793988 7.99864215 31.53439369
W 49.72413552 6.34797349 32.83209959
W 1.33722536 8.62693444 34.49608302
W 48.26352640 7.50677407 35.02836495
W 0.36429607 7.87161241 36.84959932
W 49.18625529 6.34716689 39.46830846
W 49.41917479 9.20251213 46.25532330
W 46.55065349 6.73120359 39.04540355
W 5.78702399 11.06536654 41.13008690
W 4.85959409 49.22091077 45.30131563
W 13.42667755 20.38711272 53.87869498
W 26.99973922 35.79320714 68.87402916
W 21.36957970 13.96082479 52.95722461
W 18.80577245 38.82945119 57.79787138
W 24.04646296 0.09971016 64.53222833
W 22.52158396 30.23066085 49.85505985
W 6.42407544 23.78931586 59.21103936
W 24.25175031 35.51817342 47.71496620
W 32.97203892 42.48930383 75.34064413
W 14.33145134 31.10883878 42.51497678
W 14.01623533 1.68169741 77.74075153
W 4.25490560 23.17651160 78.61473854
W 25.51804924 17.23227236 83.24853765
W 37.48032791 33.01559446 71.10351392
W 13.49492349 28.82277493 0.24000072
W 0.56178924 5.91705435 98.67277073
W 45.87625462 18.92224686 76.52522166
W 21.77291761 37.39359052 67.50413569
W 29.80906390 7.89661267 78.24182328
W 39.10833291 6.11402169 56.36299739
W 37.93734720 23.76201487 62.76401985
W 19.50624626 29.75552951 62.06588577
W 34.66554596 23.82145399 85.20210432
W 39.44927985 43.99162787 98.92330930
W 39.83405659 5.05557248 73.75329467
W 21.09842494 47.22407242 72.54239632
W 1.47913242 25.75288272 90.20287769
W 28.33593504 32.93472384 87.30204908
W 2.15413150 0.89929653 49.21374978
W 1.91290708 27.73827162 86.07135662
W 20.58453294 49.07065802 78.36223949
W 2.11747437 17.39047586 5.65562063
W 46.18648711 12.11246445 94.97071854
W 1.97878616 8.40677365 5.44750200
W 48.81751531 11.83246640 5.94332040
W 1.68512787 10.78477097 6.23760021
W 3.55645843 13.24126597 7.18928609
W 0.16389966 9.87502885 10.60060553
W 1.80378661 11.68829493 11.93407846
W 0.17208837 9.62950120 13.81505566
W 1.73253423 11.42131687 15.15256162
W 0.34981733 9.79041931 16.62736797
W 2.03026640 11.48653693 18.43840250
W 0.12547241 9.77849883 19.94331313
W 1.84061896 11.16925417 21.42609960
W 0.27510247 9.82768117 23.05179344
W 1.94056335 11.32027285 25.35219072
W 0.49617076 9.85972059 26.82976725
W 1.99451032 11.34640640 28.24208636
W 0.10605811 9.42958981 30.16329633
W 1.84169247 11.24290978 31.11576622
W 49.72479230 10.27979424 33.40541794
W 2.64531662 11.32997230 34.50840252
W 49.59116797 10.53306189 36.14069263
W 3.92694950 12.58905277 36.36593069
W 48.32512330 12.01511716 37.96779777
W 3.00285795 16.28215540 41.22200794
W 0.38268206 15.92024866 41.78646820
W 40.91127641 16.19305217 47.74379675
W 3.64894849 13.23707656 51.74506041
W 17.67478370 13.60589233 68.67973621
W 38.47893827 11.51889390 70.23358843
W 7.96163248 9.45273677 49.66077152
W 10.21487809 39.75596216 67.71280677
W 22.62053576 8.50185893 53.07304236
W 44.85326748 49.02378445 98.32489260
W 34.94320195 3.48624687 73.25686861
W 19.51134237 18.62177845 69.55368013
W 24.50488243 23.78634175 89.62795779
W 6.55386392 2.15513549 45.58082516
W 40.49385664 23.96866354 73.60797572
W 25.88325175 19.35392493 67.49402629
W 2.65493835 3.73219203 89.30178669
W 4.52746997 36.56584335 2.22456193
W 47.79564650 37.85826309 91.15657194
W 24.31407464 37.17542291 77.77573877
W 41.09885713 45.16324093 96.90100820
W 41.08192246 1.49946102 50.75654868
W 35.62183058 38.29938784 54.84585038
W 17.67385402 41.03461749 73.69802350
W 45.74729912 47.02370219 77.39286279
W 44.17338755 5.79573165 65.01913983
W 25.41242585 23.32189807 80.34054519
W 2.77296383 38.07620500 78.36069675
W 15.34299953 11.75587624 62.76983413
W 44.52192758 44.93601031 86.22369142
W 24.30684077 29.88836483 92.58694009
W 38.61647816 32.48751132 83.65393633
W 43.63541685 1.70542308 52.24105562
W 38.29177036 33.98947304 63.00508101
W 9.04321363 39.42147017 60.62848516
W 47.84284526 10.54399989 97.38120518
W 2.45110064 15.98166399 3.36873410
W 46.17498776 13.13116239 3.88986686
W 2.96639197 13.54331236 1.39044417
W 0.08507645 13.29817247 7.53171685
W 49.62065520 13.67744134 10.03504910
W 48.13835899 11.59327779 9.13323448
W 1.94150595 15.11585189 11.83519642
W 0.13525552 13.35007161 13.05938629
W 1.75802438 14.80867050 15.44675624
W 0.00701112 12.93473964 16.84582630
W 2.03554405 14.42487725 18.17122912
W 0.43361558 12.95736727 20.08195226
W 1.93855541 13.94007525 21.74104397
W 0.38964010 12.98551146 23.49776752
W 1.97256411 14.53008610 24.95459899
W 0.18272072 13.02938117 26.63106381
W 1.82315055 14.55649154 28.23980554
W 0.40519329 12.72654780 29.77371205
W 1.78706670 14.51595156 31.70801559
W 0.16954051 13.15443119 33.42645730
W 1.89898450 14.27455278 34.76617047
W 49.22505317 13.29329295 35.97764407
W 2.04958300 14.31991065 37.38558224
W 46.79518300 16.49094204 39.19697679
W 1.75768889 11.47680120 37.60222310
W 49.35928094 5.48263047 41.96550393
W 2.29907909 10.64945935 45.30786646
W 4.07022422 12.63878937 48.92260392
W 0.65615336 17.43909222 50.25123766
W 10.64278766 13.36040616 49.80954645
W 6.41263737 49.30053806 97.11407692
W 12.81087316 13.12448696 75.61266738
W 3.92116673 39.15242840 83.53874508
W 28.02835463 14.04464646 69.99965981
W 29.39372706 22.44767665 94.63337428
W 23.33237600 40.44718996 71.71027304
W 5.54022736 20.82550541 50.28184538
W 0.51868355 40.02451251 78.12865898
W 48.33165258 8.93883488 73.92812668
W 47.40253020 47.49032078 79.76873205
W 47.58598233 26.26504524 99.40748620
W 33.69866344 38.04983139 91.98735073
W 32.19447519 20.93803483 4.05661996
W 33.04948964 32.44534770 73.71034532
W 43.63549059 29.37418188 47.14434675
W 10.14308164 31.13673898 94.91229827
W 14.28593104 16.23835614 66.88353309
W 14.59086955 26.17301577 68.48995974
W 30.21202954 5.74496377 50.53541442
W 13.84704139 24.63197792 70.75906332
W 23.87101771 48.34069620 88.44982474
W 35.50346070 6.96803665 3.56917568
W 0.09302166 29.94280682 53.96812571
W 46.09653508 38.83750298 47.83033205
W 37.20983681 1.75014350 96.41511139
W 6.57828828 1.38655708 62.55087038
W 32.61875531 24.09253302 82.95705870
W 0.84965414 18.91176472 86.69394807
W 44.72339148 41.86762429 76.43637409
W 42.84683566 17.77282256 95.43722578
W 10.21558216 19.25416533 97.72619043
W 47.95050970 18.22345128 5.94617788
W 4.88514222 18.63961299 7.85151084
W 47.72111743 21.39413944 6.00749253
W 1.57393714 18.15539591 8.36638516
W 48.44860194 17.88779041 11.97498083
W 1.82405033 18.02391837 11.84020322
W 0.16301012 16.33551722 13.79245170
W 1.74078704 18.01015918 15.14231657
W 0.33770761 16.28736960 16.83519880
W 2.15449189 18.20776518 18.25426855
W 0.73330990 15.85765511 20.16136470
W 1.72447178 17.87231667 21.60089871
W 0.44952592 16.05015799 23.42576061
W 2.09096653 18.38568071 24.99542178
W 0.46058081 16.28029145 26.36624070
W 2.01480224 17.96730505 28.08799930
W 0.66441512 16.53586672 29.61850348
W 2.03919199 17.93698660 31.44571697
W 0.66794963 16.25636241 32.96899408
W 2.00866606 18.01467545 34.99839318
W 0.39660749 15.97904683 36.59225064
W 1.69523363 18.24441797 37.87650168
W 0.00531408 16.71882905 39.25225242
W 45.67293435 17.96005332 42.37244823
W 41.84317064 14.85503426 49.54660968
W 0.38412460 19.70625143 39.14739537
W 0.93034899 15.85494429 44.70143929
W 48.52313949 17.54000758 43.33485525
W 19.19256632 23.02239247 63.84431143
W 0.71574027 13.38592173 56.97603451
W 33.61326756 30.02751698 73.74286060
W 6.74774310 12.81905903 62.28303403
W 47.87071908 5.45826836 57.78830216
W 4.66313897 2.39664786 51.58480403
W 4.86477837 8.09030826 46.91036147
W 28.70115530 2.88599862 92.76003901
W 8.47592983 36.76902109 60.87539808
W 33.21340575 28.18144625 66.71002850
W 44.59159512 14.21539448 84.97660112
W 45.23556587 37.86014612 93.41084399
W 46.94458568 6.36599457 2.19989659
W 31.30893135 30.81825421 79.45323105
W 19.32465242 42.89431436 87.36932578
W 18.12956320 23.41487856 74.93328447
W 9.12440591 14.28229299 56.18224023
W 49.25904813 0.68975238 65.70376218
W 2.74563429 30.40460650 65.93129897
W 0.64522539 25.96406698 87.59402057
W 47.24349576 30.73783746 86.62351074
W 13.98402487 32.87207465 98.50957485
W 20.34035557 46.07385850 80.49474950
W 10.00842421 40.19884481 58.25991613
W 22.75488236 42.84191093 64.11335838
W 46.12845333 45.19727597 68.97483259
W 44.28512188 15.73885335 50.69736652
W 6.71999629 34.39782230 97.66790918
W 1.15487717 35.02532224 88.37051565
W 48.86767022 49.58648918 49.02181011
W 49.51035423 19.91141100 7.39092097
W 44.09075779 15.79449063 96.44059870
W 44.65614316 20.86401786 2.46684035
W 6.93016575 26.05826797 1.30219959
W 43.75307020 23.85263823 3.54040114
W 3.38151847 23.39247911 7.39476588
W 0.01837742 19.46611659 9.91064841
W 1.52585390 20.60851206 11.98669044
W 49.61462385 19.75255685 13.61233818
W 1.92035950 21.35506926 15.11030222
W 0.21317629 19.42062090 16.72676710
W 1.97430504 21.30937440 18.43256995
W 0.37479998 19.33218777 20.13476066
W 1.68384628 21.33439638 21.46836064
W 0.22186368 19.61407184 23.00632700
W 1.73027523 21.50541358 24.67213557
W 0.33534743 19.58265582 26.53258885
W 1.45402309 21.47976131 28.13329433
W 0.17529236 19.83596252 30.08568846
W 2.00679171 21.13757454 31.55637178
W 49.58907640 19.44069147 32.70300893
W 1.55392629 21.74130874 34.64626825
W 49.65544645 19.62005498 35.73110066
W 1.90715773 21.82855127 38.19881164
W 45.13322788 15.07882008 40.98105665
W 6.21118655 23.41316568 39.60413947
W 9.62064545 28.85174610 48.23547099
W 48.82928155 17.16515650 52.81969156
W 48.62840506 18.36665266 40.75191089
W 45.51221164 26.90017689 41.71280937
W 49.56858224 32.93974637 74.54650758
W 5.85603721 23.81287315 50.30924126
W 24.55098481 12.86666070 46.88042326
W 39.06227277 6.19954756 61.71975124
W 11.42556913 34.18713240 8.96726062
W 40.34885647 37.69393801 66.35183826
W 11.29828943 16.91874508 46.64755013
W 46.18099612 37.60852077 84.21589974
W 45.58838099 11.08091620 98.64975014
W 42.25902283 40.39800427 70.33040154
W 27.16038909 48.23523334 56.21963491
W 0.86074121 44.87659227 92.35466020
W 46.30460932 1.71372374 86.48022592
W 11.31492211 15.31858779 77.99211257
W 27.84430381 18.87335156 57.30520581
W 38.49221565 27.80914343 74.47133481
W 40.18686971 38.67312369 94.42730060
W 32.10985177 44.11317608 70.96639646
W 37.93816217 4.69848393 69.25516045
W 6.50069877 15.92533269 4.00617504
W 11.29505181 25.37400768 78.55632809
W 9.46088659 27.79304341 84.05907422
W 12.58969314 40.48587596 79.11287745
W 0.44573611 13.38265803 88.68076992
W 31.35616717 38.62840384 53.21221108
W 48.71686727 39.75806793 46.99063731
W 14.90144622 28.13456326 74.28497412
W 14.68191953 35.38702683 78.14043008
W 21.95590911 20.61585818 60.69079703
W 9.23473085 24.46049766 95.49036207
W 44.58373709 28.63472551 86.69017323
W 2.12744058 35.12866604 1.37597620
W 4.71878886 24.85471623 9.32664775
W 45.80075684 42.12332260 98.65149412
W 0.05808828 23.11978944 7.10491664
W 1.54875263 25.12991502 8.91509357
W 1.36113729 21.07395576 8.77534520
W 2.34895652 25.10692380 12.06135547
W 0.26599435 23.20873256 13.66315641
W 1.78595524 24.91839056 15.12697795
W 0.09213822 22.58869140 16.74772122
W 1.51703812 24.55610530 18.18960491
W 49.57688371 23.33985666 19.77700373
W 1.45342728 24.75975180 21.85073869
W 0.19487668 23.01169613 23.19838192
W 1.72769585 24.61539146 25.23345486
W 0.25229323 22.96387402 26.57048504
W 1.94221734 24.37438954 28.09834020
W 49.49530771 23.37448030 29.45627093
W 1.71554556 24.35876953 31.20076090
W 0.22634788 22.99621735 32.80347038
W 1.54491785 24.95224391 34.27221372
W 0.05004824 23.47689363 36.24265257
W 1.47391426 24.99589678 37.79143144
W 49.27947647 23.18956389 38.93415551
W 49.70862895 23.73125930 42.62906424
W 2.52300244 24.56645630 44.77011355
W 49.23481083 13.35038292 41.90890717
W 43.87586942 17.52361728 40.01070201
W 3.57630872 23.19457341 54.68696258
W 27.95264323 20.48050043 0.60870649
W 5.08024943 18.40571726 40.79064136
W 32.17820396 32.49995783 53.23376201
W 37.77891387 19.18605150 56.76418976
W 22.71731000 47.22780903 70.42515664
W 3.46090019 42.09035062 42.92745739
W 6.11750499 39.34170840 71.37877190
W 6.90518902 23.17881542 77.12494350
W 49.34466664 4.50950127 82.46984312
W 49.60105723 16.04767928 60.22391347
W 22.87588983 8.70140190 84.49951270
W 48.25981770 31.32272517 78.61012663
W 28.67858474 25.49148931 88.56720016
W 38.39266153 34.92175301 85.19264282
W 2.15379600 28.28396924 77.56746390
W 8.41897240 17.61615868 98.72574918
W 8.66170131 19.35124514 1.13523565
W 6.29095951 13.06801032 52.33238470
W 36.52754097 41.51157673 82.19508658
W 45.27487191 9.80630783 81.64657385
W 10.55137914 25.68629246 98.19004816
W 43.33440597 19.81215502 62.57201187
W 13.21861413 18.28992918 78.31216592
W 2.11661349 49.54584201 70.37869505
W 19.43298645 25.43836263 87.59547299
W 5.01055506 10.86023052 85.83222719
W 30.04256943 12.59596698 90.21846890
W 20.60063890 28.18007291 55.50587534
W 23.19185709 20.53581041 42.68625876
W 36.32300095 41.82945486 54.94782271
W 5.08216971 32.67187509 96.19011320
W 13.75362971 30.08186737 6.63173550
W 1.98002221 27.86060986 1.88244864
W 0.74677416 25.89932925 0.62928344
W 48.37015908 24.94077845 2.58715382
W 6.62898236 30.29740075 4.72061895
W 1.56088999 28.15005472 8.81679201
W 1.37277831 28.17456302 12.18044891
W 0.10156395 26.37108295 13.91009084
W 1.76814318 28.25915561 15.19764357
W 49.44908747 26.79663603 16.71116150
W 1.72863116 27.80383400 18.54911718
W 0.10359264 26.56481887 20.08652358
W 1.92479694 27.71782035 21.35977644
W 0.11951662 25.92026045 23.29339660
W 1.93459146 27.74478811 24.78951506
W 0.34314369 26.28432922 26.70167665
W 1.75316136 27.92694268 28.15861486
W 0.22031694 26.47958631 29.62482431
W 1.75036397 28.19034642 31.25526962
W 0.02261645 26.30111768 32.48949059
W 1.33742748 27.83385062 34.19372960
W 49.63314306 26.46424955 36.08394715
W 1.79937575 28.00338918 37.56592475
W 0.25912561 26.21333118 39.45033040
W 1.67816049 28.46472027 40.50601890
W 48.15784984 27.54072364 44.72769605
W 1.58650458 17.70154078 43.42159041
W 48.69835549 26.10043361 47.68509188
W 48.65363282 27.60097769 49.66073694
W 46.79865021 47.23590915 42.09629592
W 36.48654719 11.97941419 68.21252786
W 44.00717567 48.32170072 57.49646588
W 7.15128380 19.87699840 52.43618058
W 21.16948723 33.82642716 83.50938602
W 30.41186674 6.63652893 60.43363535
W 41.33357536 24.33735515 1.36138651
W 43.34618467 45.24320221 79.50102710
W 29.66152866 21.46841071 98.34156846
W 16.87811218 13.36711255 71.06048156
W 7.72058507 2.44016734 85.84664615
W 24.30654545 41.51326628 87.99413141
W 46.91071766 3.46562179 78.57146083
W 47.21207536 45.84682461 59.91572382
W 31.99893556 21.94584561 86.21182641
W 31.79006371 7.99521136 67.03726048
W 49.49278746 37.89427563 77.03750422
W 44.73635052 28.40143379 6.31987388
W 4.21678722 8.00366652 71.27079921
W 35.13873076 45.36460332 98.35367502
W 6.66285989 30.79214520 49.34888113
W 29.04886411 39.37387171 74.55079896
W 47.41762382 7.47307836 46.52418427
W 36.52234558 20.44650870 78.22439979
W 33.99354149 38.48646592 89.25289150
W 18.92605228 2.03856793 89.01299246
W 49.79223493 39.00367669 87.33603549
W 26.36267407 5.20015456 54.68165473
W 33.29706429 47.92709362 86.98988233
W 14.12594388 29.98138454 64.03699429
W 2.21458904 35.64770116 95.83835457
W 47.81883480 42.28760204 96.64568635
W 7.62680300 43.35230550 89.80013243
W 3.69487986 33.35309082 6.76690752
W 43.34718050 32.22914346 97.93900987
W 4.36613356 31.08454741 5.52119624
W 0.49622303 29.80902075 10.34759725
W 1.81522567 31.41813607 12.32893735
W 0.16732585 29.86876655 13.70925448
W 2.25092699 31.19981533 15.25401815
W 0.05996649 29.47792370 16.91489414
W 1.99148955 31.19579107 18.41371283
W 0.17081827 29.45719444 20.11189908
W 1.63203462 30.70831935 21.90512452
W -0.07693098 29.00195569 23.35921679
W 1.75247011 30.96046158 24.51042829
W 0.28017410 29.47675986 26.66515701
W 1.99563308 31.07872382 28.09207160
W 0.16457856 29.87709815 29.41976110
W 1.74129455 31.27662884 30.89118503
W 49.72217367 29.70216467 32.66992668
W 1.72533636 31.64678145 34.82673297
W 0.33580315 29.42874837 35.97797432
W 1.75261981 31.78912338 37.95506500
W 0.01475770 29.63497962 39.40579580
W 2.38477189 26.71757357 42.92838614
W 0.76557765 28.42998943 42.92927231
W 45.44641694 32.03558075 48.98119413
W 45.01328538 19.84323242 45.82973842
W 10.78933234 38.57762708 43.62194413
W 6.20846694 11.78032824 83.10815417
W 25.27339630 48.19722628 81.41372006
W 39.78254403 6.80002713 38.75169231
W 16.75076584 47.79142510 70.35974422
W 35.90937025 15.67860464 46.56192976
W 16.94099206 21.72349574 54.37154894
W 48.87762928 21.65705139 79.75204365
W 46.41347814 21.38857950 75.49123649
W 0.83506712 45.84114676 43.03743253
W 22.89299343 29.95073698 64.27115249
W 45.82439191 44.66903365 65.45071899
W 11.60080947 43.98720933 76.10304345
W 13.61093265 1.97421346 53.71015669
W 26.98458954 46.16522724 44.65749749
W 36.23724165 42.74347141 77.37605237
W 25.57028074 45.49670537 61.53798727
W 25.42339666 42.26510955 96.39931525
W 35.94630497 33.05718021 82.24002655
W 12.70694711 22.72286926 75.35336655
W 38.08104637 17.99097785 49.72623339
W 38.01370569 34.35368846 58.82192961
W 16.72042076 17.41175593 98.70004016
W 12.22815856 21.91564439 85.24768587
W 33.64318372 4.25023727 65.43463839
W 26.30818815 11.77267752 87.11688497
W 22.08414432 4.63480055 71.85035807
W 20.04013865 35.80570301 69.29389923
W 34.82256456 10.70525468 51.29274463
W 3.49815580 0.97880559 58.80195971
W 32.85101145 11.68250481 58.78208794
W 45.50659656 37.54433214 5.41160759
W 47.59541102 39.77506025 96.18906618
W 1.61379760 38.28888247 99.44785954
W -0.04233421 36.41211075 1.41678940
W 48.28936070 31.10349576 0.71823141
W 2.27676426 31.01996601 8.74192291
W 0.52963909 32.84199483 10.51723081
W 2.35840514 34.19387992 12.14656889
W 0.21105365 33.00821513 13.96645247
W 2.13183395 34.15958349 15.30901404
W 0.23380848 32.79682632 17.02880359
W 1.83832094 34.60016378 18.59671709
W 0.51307287 32.75407873 20.20197265
W 1.67329300 34.70994657 21.55672272
W 0.32454587 32.85723488 23.01861666
W 1.54450594 34.97160423 24.49532541
W 0.01076992 32.60184391 25.92023227
W 1.06103724 34.30104890 27.45801387
W 49.56762479 33.09887351 29.50338413
W 1.63153950 34.65752374 31.52161974
W 49.67891923 32.99227209 32.87110203
W 1.51966639 34.65435281 34.04663538
W 0.21271433 33.09185354 36.04597610
W 1.55730663 34.38291170 37.97519869
W 49.43507181 32.93702376 39.70565101
W 3.19902056 32.65922765 39.66363986
W 49.24005600 32.66237150 43.05512436
W 1.59800331 31.03142694 44.35509353
W 0.30797967 29.81608612 48.50801488
W 3.80689029 39.07198013 53.06335941
W 43.24350526 27.22796428 49.03336661
W 32.68795866 7.99890646 69.55894214
W 21.88898707 38.99507948 58.93604270
W 12.60582500 33.40642939 56.51438596
W 24.90298804 2.58567926 94.11258381
W 19.32784615 12.46610336 54.82827299
W 39.30453357 0.74630780 75.82002657
W 46.90768211 13.74806450 71.30057762
W 37.12619988 31.95950411 58.53875332
W 26.84343107 46.61405262 93.21659279
W 1.84288047 12.54663925 66.63817231
W 19.31121733 34.68776979 74.76653524
W 48.41143328 5.67309385 50.11363344
W 0.70915800 29.76587672 93.25201558
W 14.72619942 23.96707866 2.85554632
W 20.96961695 35.22901385 86.09028766
W 37.84436542 3.82267653 63.02726878
W 13.48981623 3.68670934 96.07517082
W 7.35930470 30.73207240 91.42007346
W 37.83249184 43.89655433 46.61065655
W 0.45483895 49.01299009 1.78968772
W 33.92153168 35.55680238 74.54325628
W 3.88369721 27.13525348 62.60676614
W 19.99877598 41.40063715 98.11773152
W 23.30632996 27.93479413 78.40395172
W 33.17586100 49.45976983 89.57182623
W 29.23429016 15.20620319 67.10925743
W 15.45806679 29.07176087 71.46736599
W 14.80636870 20.91150479 52.00698971
W 46.51340258 43.51580676 86.99029010
W 48.19135692 46.35147034 0.85271192
W 43.31686807 42.81598834 1.21959849
W 49.63131415 41.53465648 94.82763387
W 2.76544704 40.61884413 1.45628184
W 7.01615403 43.03912335 3.34060729
W 1.70140370 37.92548418 8.77431030
W 0.37905793 36.10409498 10.28661026
W 2.03158505 37.76698920 12.13699310
W 0.70426627 35.94685642 14.08864895
W 1.63787023 37.92315307 15.31711775
W 0.09646586 36.28509900 17.19690312
W 1.83245303 37.70752043 18.36995002
W 49.52710288 36.79123086 20.04552323
W 1.65642173 38.19702336 21.54913483
W 49.67232211 36.75078180 22.93042001
W 1.85332968 38.28636473 24.62241709
W 49.52796114 36.29286628 26.28882157
W 2.18024869 38.20635117 28.12053911
W 0.44462357 36.18355098 29.80091023
W 1.36192950 38.45934247 31.11875402
W 0.04112078 36.51116078 32.71655018
W 1.61251067 37.64364197 34.38813501
W 0.11949082 36.10006349 35.59410003
W 1.47785229 37.76969789 37.12648088
W 0.37061414 35.76904102 39.22772128
W 1.51179412 34.99854800 41.40253184
W 46.89398814 32.93199715 50.70810123
W 4.07530319 41.28081381 47.51441958
W 42.47889145 32.51521653 48.56919389
W 0.07352958 27.33115684 52.24681674
W 32.75967786 36.43446224 83.10959147
W 17.41035554 18.04027831 2.28020435
W 21.35285271 43.77267326 96.75469812
W 33.60435687 28.79883542 51.19102489
W 29.82806128 47.72462312 54.23327750
W 11.55394795 30.29449994 63.64203436
W 18.58729691 2.34317078 76.46403810
W 46.33890915 13.94676477 49.94351630
W 41.90746849 40.62024604 96.25491131
W 40.37027266 49.58790392 90.39658647
W 11.41353733 36.65618934 92.72852730
W 23.79463132 22.49416398 51.61732168
W 10.89440599 0.75492087 60.45477505
W 9.94088491 3.14968649 83.32582091
W 4.85614828 17.86527015 81.00340368
W 21.20934217 37.13127560 43.24356560
W 6.36559045 9.43465729 78.23705056
W 9.58209410 1.85284185 92.68374274
W 26.47346201 39.62740714 78.46623554
W 33.80781351 25.96621118 68.11163541
W 42.96300949 20.02189523 48.89189867
W 22.11455201 16.27739277 -0.06410311
W 27.68172103 14.77277636 87.18402631
W 33.73689407 12.45112647 96.42968624
W 9.38517560 44.10202812 87.75623385
W 48.13386731 18.92433899 66.65649673
W 27.28227361 15.45683283 1.92876518
W 0.84755304 43.82933820 56.62643307
W 48.07210080 34.79826864 6.01387890
W 12.84612762 23.50737530 91.48819305
W 5.45398981 45.00469779 2.00253153
W 49.31765573 46.95080150 93.36086618
W 47.63646451 44.43152411 6.21579566
W 49.21573117 43.05592114 4.67592254
W 49.43433977 39.65582967 7.39321153
W 1.64255483 41.12362075 9.14151470
W 0.25166981 39.49429940 10.70764810
W 2.08070522 41.12786999 12.28446339
W 0.15401411 38.95585905 13.67814604
W 1.38915131 41.27241375 15.31257547
W 49.59878545 39.16040864 16.77031878
W 1.29960465 41.48271819 18.35824533
W 0.18720820 40.14387177 20.29278601
W 2.10103096 41.43087296 21.54180425
W 0.16649051 39.85875967 23.51227251
W 1.92348941 41.26582743 24.81503897
W 49.69854119 39.38596692 26.21409148
W 1.54598026 41.11763458 27.33794123
W 49.54305522 39.59492216 29.35643082
W 1.78156939 41.34745883 31.46318869
W 49.56649179 39.75246216 32.80827513
W 1.28370751 41.08580826 34.62417867
W 49.73092787 39.99848087 36.37020781
W 1.90036608 41.38164245 37.37017035
W 1.48161327 37.74702229 40.47093690
W 2.41992429 41.37240909 40.21275634
W 45.47195691 42.21327832 43.15690805
W 4.83377242 42.61022967 45.11504863
W 5.65736036 25.14896926 53.62523429
W 49.07310392 43.56512077 53.02343327
W 45.76509612 47.67416654 49.72995191
W 48.45441633 0.53064647 79.61925297
W 22.81989051 8.96324357 62.35755839
W 32.29782877 22.45652709 54.28328034
W 28.70459846 32.32465567 58.20566561
W 8.73781373 18.43947042 54.30291829
W 24.30513883 30.30079744 54.01592211
W 44.60313031 26.32737617 70.62536969
W 47.12661912 33.80537918 81.09827015
W 18.36233739 10.59881972 95.27201271
W 26.46228033 7.69676985 55.25900316
W 47.86356475 21.63713948 88.35634199
W 27.66531434 42.09701955 54.98406724
W 2.17302782 11.83998784 95.56249545
W 48.58602907 1.85432875 47.59963098
W 27.11338831 44.20423278 62.96515178
W 24.63422106 30.03323743 84.50823002
W 22.45427373 23.24178184 79.59294569
W 10.11047424 46.80500340 95.16236244
W 42.70707944 5.43697904 86.66245001
W 15.98578102 0.12040659 42.65020267
W 36.77617785 37.03542518 85.39089516
W 17.97482140 20.82588026 82.06261835
W 22.27182506 25.01163897 77.86679616
W 36.15586010 27.71045618 66.59747893
W 28.23705446 10.80269312 68.18389230
W 45.91059751 20.63972700 65.46322302
W 8.18304236 27.74746786 65.01025873
W 30.60459547 43.71338575 75.51618619
W 47.33397709 2.86662132 94.83639238
W 1.69965962 38.73900848 94.43328308
W 0.12847458 49.32664616 4.45315218
W 42.06294412 44.73101518 99.35422515
W 49.15133844 44.23630279 2.17306575
W 49.82504064 42.46108460 7.57807913
W 2.12104197 44.36440209 8.61032375
W 0.18664971 42.90892361 10.46786293
W 1.62691323 44.56800550 11.98309564
W 0.11006025 43.18040994 13.51462125
W 1.50010636 44.92977559 15.07196722
W 49.51196382 42.94461364 16.58060865
W 1.49061820 44.50375298 18.25503378
W 49.68769914 43.05492097 19.95590341