  1.5786505e-01   5.6598052e-05
  1.6489965e+00   3.4376200e-05
  1.6256779e+00   4.5643457e-05
 -2.6922510e+00   1.1262950e-05
 -8.9207339e-01   2.2971954e-05
 -4.8791502e-02   6.2574305e-05
 -3.4463231e-02   5.9091304e-05
  3.9409578e-02   7.0538626e-05
  1.8395136e-01   1.5227444e-04
  3.7797827e-01   2.3267858e-05
 -1.1666987e+00   8.7935041e-05
  3.3521560e-01   2.3137274e-05
  1.4339532e+00   5.5471031e-05
 -9.5311075e-01   4.8220321e-05
 -8.2726789e-01   6.2048202e-05
 -2.4083655e+00   2.9936788e-05
  3.9562640e-01   1.9867864e-04
  4.4165659e-04   4.1707250e-04
 -3.1403890e-01   2.7693631e-04
 -4.8182178e-01   1.6280802e-04
 -1.4035474e-01   9.1993876e-05
 -1.1619025e-01   2.1709420e-04
  4.5802787e-01   1.3636873e-04
 -1.7722952e+00   2.6609038e-04
  1.9880790e-02   3.9342174e-04
 -1.5465297e-01   1.9301497e-04
  3.7430858e-03   1.7590311e-04
 -1.6237235e-01   2.4657647e-04
  2.9883985e-03   1.2311833e-04
 -1.8908942e-01   1.9130643e-04
 -8.1583811e-03   1.5908082e-04
  2.0759293e-01   8.3296705e-04
  4.8603281e-01   9.9233723e-05
 -5.9462994e-01   4.6675946e-04
  2.4285658e-01   5.1037973e-04
 -4.7655251e-02   1.3453932e-04
 -2.5881284e-01   3.7881699e-05
  4.4412841e-03   2.3906046e-04
  3.5680637e-03   1.7299101e-04
 -2.3017003e-01   2.9332394e-04
 -8.4409511e-01   6.9515919e-04
 -1.1649080e-02   6.1436649e-04
 -7.1548065e-03   2.8997322e-04
 -4.2537856e-03   2.0357105e-04
 -1.2396119e-01   1.1410762e-03
 -3.8895664e-01   1.0150500e-03
 -3.1085688e-01   1.2541942e-04
  2.2238534e-04   4.0419833e-04
 -1.1469269e-03   9.9392200e-04
 -3.0477110e-01   9.0094007e-05
  6.1410341e-05   2.3764114e-04
  1.3636309e+00   1.1207689e-04
 -4.0993430e-02   8.7599788e-04
  1.9160247e-01   3.4654577e-04
 -1.2927547e-01   1.6123595e-04
 -1.1271977e+00   2.3912109e-04
  6.6927594e-01   2.3197460e-04
  3.9280748e-01   3.5808884e-04
 -1.9934111e-04   4.3087226e-04
  3.8836116e-01   5.8227870e-05
  1.7336341e+00   1.1134695e-04
  1.8201112e+00   1.2437932e-04
 -2.8637750e+00   5.9877308e-05
 -6.9101065e-02   1.7239065e-04
  6.4479011e-01   2.3264355e-04
  1.6718554e-01   2.5910357e-04
 -1.7990991e+00   1.4003825e-04
 -1.5583339e+00   2.7688043e-04
  2.8311399e-01   3.1864078e-04
 -3.7442553e-01   9.0675931e-05
  6.9373637e-01   2.0711057e-04
 -2.1048048e+00   2.3637511e-04
  1.1152387e+00   2.1248768e-04
  6.5975465e-02   1.8672446e-04
 -3.1124152e-02   1.8086963e-04
 -1.2476616e+00   5.3619569e-05
  2.7540553e-01   2.0778402e-04
 -5.4484987e-01   3.1254918e-04
 -7.4681401e-01   1.6619220e-03
  1.0560445e-01   3.4312619e-04
  6.6009467e-04   3.0396751e-04
 -1.2892054e-01   5.9023284e-04
  1.0072961e+00   3.8504167e-04
 -4.4802442e-01   1.5951078e-04
 -4.9009839e-01   1.2655117e-04
 -4.6415396e-02   6.4157000e-05
  4.0600631e-01   9.9097459e-05
  6.4736557e-01   3.6116160e-04
 -2.0876777e+00   2.6962461e-04
 -3.3997315e-01   2.5905418e-04
  2.3703113e+00   2.2447328e-04
 -2.4261931e-01   8.1821391e-04
 -4.4570753e-01   2.1605869e-04
 -4.8897928e-01   2.8954598e-04
  1.1532727e+00   3.1284380e-04
 -4.1273031e-01   4.7171014e-04
 -3.1983522e-01   8.9581350e-05
 -6.4433986e-01   3.9964309e-04
  3.5766492e+00   2.3043282e-04
 -5.4898447e-01   3.2697592e-04
 -1.1178052e+00   4.9275695e-04
  1.3709533e-01   2.0533962e-05
  2.0634788e-01   1.1604252e-04
  3.6294934e-01   4.5513987e-04
  7.9944052e-02   6.4190902e-04
  5.6112856e-01   2.5578562e-04
 -1.0584582e-01   2.0148153e-04
  1.0089768e+00   2.5324844e-04
 -2.3182636e-01   3.8220416e-04
  5.2049793e-03   4.5240685e-04
 -1.0660129e-01   2.3029542e-04
  8.9600468e-03   7.7710423e-04
  2.4818766e-01   5.1087094e-04
 -1.2877027e-02   2.4956372e-04
 -6.2575144e-01   2.0921850e-04
  4.4508759e-02   3.6050563e-04
  7.8997636e-01   1.1724202e-04
  1.7459953e+00   2.5982733e-04
  4.4804373e-01   2.5725793e-04
  4.2279351e-01   4.2809654e-04
 -7.9205923e-04   5.4524414e-04
  1.0854112e-03   5.1345088e-04
  7.2241272e-04   1.4960134e-04
 -4.8672629e-04   5.0649454e-04
  3.9686248e-01   7.6413085e-04
  3.1645868e-03   2.9377302e-04
 -8.4090914e-04   1.5184522e-04
  1.4947637e-03   1.8679111e-04
 -1.2085476e-03   3.1178203e-04
 -1.5491374e-03   2.3276194e-04
 -7.3253563e-05   1.8245453e-04
  1.3487823e-03   5.0965993e-04
 -9.2212303e-04   4.3459408e-04
  6.9631793e-04   2.3253208e-04
  1.9311419e-03   5.4392475e-04
  1.4154215e-03   3.4811467e-04
 -1.5821682e-03   2.5478328e-04
  1.3933631e-03   1.5383790e-03
 -2.2618519e-03   1.9758934e-04
 -9.1117062e-04   3.6893462e-04
  6.1504997e-04   5.3096074e-04
  6.5009249e-04   4.9474346e-04
 -4.8999698e-04   2.7377892e-04
  7.8578815e-03   2.1126316e-04
 -2.1289091e-04   4.4785612e-04
 -1.2381611e-03   3.1964807e-04
  1.5755119e-04   3.5469286e-04
  1.6549319e-03   4.4096317e-04
  6.5483304e-04   4.8016655e-04
 -3.4820149e-04   5.0115003e-04
 -3.0520049e-04   3.5263013e-04
 -8.6048600e-04   2.0988601e-04
 -2.0486754e-03   1.9916812e-04
 -4.0106173e-03   5.3826848e-04
 -8.7779225e-04   1.8793308e-04
  2.8008521e-03   1.2575234e-04
 -9.8549863e-05   5.5435317e-04
 -5.2550309e-03   6.3377531e-04
  2.1629073e-04   3.8489787e-04
  1.0582920e-03   7.2581333e-04
  2.3375310e-03   3.6511305e-04
 -1.1483994e-03   4.9220910e-04
  1.7722823e-03   5.8522524e-04
 -2.5106773e-03   3.8346660e-04
  2.1134072e-04   4.1468014e-04
  1.2662620e-03   9.2592480e-04
  8.3323295e-04   3.0846961e-04
 -1.1507892e-03   2.8851864e-04
 -9.4943843e-04   2.8166486e-04
  6.9036108e-04   1.6665168e-04
  2.5540821e-03   4.1462612e-04
  5.7646027e-04   5.8439432e-04
 -9.7436234e-03   2.5267474e-04
 -1.2556504e-04   3.0599709e-04
  2.9278130e-04   3.3677561e-04
  1.7147022e-03   5.7989446e-04
 -3.4886133e-02   9.5023002e-05
 -1.8826105e-03   3.0249948e-04
  5.2165083e-04   2.2129997e-04
  1.7370181e-03   1.4882015e-04
  6.1973739e-02   4.3895943e-05
 -3.8401943e-01   1.8254585e-04
  7.0790626e-02   3.6884550e-05
 -3.7921317e-02   2.7238189e-05
 -1.4890215e-02   1.5307229e-04
 -9.2944808e-02   3.0301657e-04
  5.2471131e-02   6.9093818e-05
 -1.1536561e+00   1.3121325e-04
  2.9025115e-03   4.4336401e-05
  1.1260621e-01   1.3828521e-04
 -2.3866497e-01   2.6236803e-04
  2.3590362e-01   3.7684957e-05
 -4.4064865e-01   3.2310531e-05
 -6.2156320e-01   1.2231518e-04
  5.6115441e-02   8.9438618e-05
  2.1475562e-01   6.6903864e-05
 -8.2321942e-01   1.0070606e-04
  4.5783119e-03   4.8134665e-04
  6.9926345e-01   2.2074238e-04
  5.2799326e-01   2.5983216e-04
  3.5818305e-02   1.0915376e-03
  3.5896260e-02   2.1714368e-04
 -1.7277886e-01   5.6983542e-04
 -1.0205407e-01   4.7230098e-04
 -8.2432907e-03   1.9499533e-04
  1.1008728e-03   3.9770530e-04
  9.3764907e-01   3.4492670e-04
 -2.0021640e-01   5.3817639e-04
 -7.6084980e-04   2.8205969e-04
  1.8463076e-04   3.2176398e-04
  3.6976826e-01   2.9880469e-04
  5.6619323e-03   2.9069104e-04
 -3.8515913e-01   1.6386519e-04
 -2.8265869e-02   2.5974741e-04
  8.4027443e-03   4.5407805e-04
 -3.5907790e-01   3.6668902e-05
 -3.4226298e-01   6.2903133e-04
  1.3257647e-03   3.8642035e-04
  2.8826399e-02   1.0073732e-03
 -7.4909274e-03   5.4324663e-04
  4.2194003e-01   5.6694367e-04
  8.0149388e-04   2.3328674e-04
  1.7692469e-02   4.0140655e-04
  3.0234432e-01   2.4231513e-04
 -1.8045278e-02   4.5285301e-04
  6.1133933e-01   4.4150354e-04
  2.0860277e-02   3.5012476e-04
 -7.1566474e-01   6.0215814e-04
 -9.0634148e-04   6.1103434e-04
  3.6211612e-04   4.4714074e-04
 -1.6852296e-03   2.1027106e-04
  8.8210683e-04   3.0964045e-04
  4.4051086e-04   6.8228692e-04
  7.3441286e-03   1.0395999e-03
 -3.1561148e-03   4.1678912e-04
 -4.5399529e-01   7.9991861e-04
  3.3893637e-04   5.2260672e-04
 -2.1522780e-01   2.4181926e-04
 -1.7969437e-01   2.3344641e-04
  2.9101014e-01   1.2111155e-04
 -7.2657442e-01   2.4996303e-05
  5.4480433e-01   1.5808817e-05
 -3.1606701e-01   1.7952656e-05
 -6.3956302e-01   4.0534611e-05
 -8.1526548e-02   4.7690173e-06
  6.5014994e-01   3.4763358e-05
 -2.8449750e-01   7.7813929e-06
 -2.3911990e-01   6.7948672e-06
  3.9510316e-01   2.0126987e-05
  5.9126418e-02   2.7912989e-05
 -1.6970691e-01   8.1428743e-06
 -3.5143784e-01   3.0330608e-05
 -8.8613647e-01   6.8324521e-06
  1.5076947e-01   6.2165332e-06
  1.0664408e+00   2.0719233e-05
  3.4450611e-01   1.3828138e-05
 -4.8422270e-02   4.2773776e-05
  1.8361046e+00   2.1313739e-04
 -1.2644038e-01   5.9302070e-05
 -1.4908068e-01   2.4532248e-05
  1.3672086e+00   1.5825596e-04
  6.0610116e-01   8.0396872e-05
 -3.3388603e-01   2.6629084e-05
  2.0438997e-01   3.2446260e-05
 -8.0824351e-01   3.8732909e-05
 -5.1944673e-02   1.9096295e-05
 -5.2730318e-02   2.5719144e-05
  5.0533533e-01   3.2974665e-05
  2.7057164e+00   7.0468168e-04
  3.1355506e-01   6.6862289e-05
 -1.2522117e+00   3.0838466e-05
  1.1543853e+00   1.0011845e-03
  5.8793753e-02   1.7496974e-05
  4.6746857e-02   6.0642011e-05
  1.1781373e+00   7.9982012e-05
 -4.5837265e-01   3.3150689e-05
 -1.9856007e-01   4.1213407e-05
 -7.5316167e-01   7.9523423e-05
  3.2069206e-01   7.2807496e-05
  1.7933103e+00   3.0360115e-04
 -4.2696866e-01   6.8269888e-05
 -1.1065893e+00   7.1787130e-05
  9.5908278e-01   2.3289726e-04
  3.0150244e-01   1.9715044e-05
 -2.7878493e-01   4.5132285e-05
 -2.2330377e-03   2.2814184e-04
 -5.3058207e-01   6.3270003e-05
 -1.1078306e-01   9.1263872e-05
 -2.3101859e-03   1.2488627e-04
 -4.0210775e-01   5.8290858e-05
  8.4619159e-01   2.2665205e-04
 -1.7646900e-01   3.4565630e-05
 -9.7296113e-01   9.1471527e-05
 -3.3672485e-03   1.6070354e-04
 -1.6002272e-01   5.3643573e-05
  9.9214809e-03   7.7984805e-05
  3.1154342e-03   2.4349644e-04
 -2.4786701e-02   7.4003069e-06
 -3.7348074e-01   5.1619827e-06
 -6.4468414e-02   2.8449491e-05
  2.1526022e-03   9.4637764e-04
  9.9525659e-04   7.2091672e-04
  7.3524718e-03   2.9909055e-04
 -6.6959474e-05   5.7325349e-04
 -4.8514074e-04   2.4791344e-04
  1.3127780e-03   6.5971160e-04
 -2.1881175e-03   3.3085395e-04
 -2.8850397e-03   5.8587239e-04
  4.5946645e-04   6.4736354e-04
  3.6779621e-03   6.2012539e-04
 -6.8988973e-01   6.0421371e-06
 -3.4766778e-04   4.3607608e-04
  6.1569908e-03   1.7261606e-04
 -2.8750638e-03   2.2597010e-04
 -6.7257998e-04   3.7280639e-04
 -5.5148127e-03   9.9243631e-04
  5.4222019e-04   5.8941165e-04
  7.7364966e-04   7.9717324e-04
  3.3715167e-03   3.2893041e-04
 -6.3692173e-04   6.8218051e-04
 -1.9177626e-04   1.7202900e-04
  1.2490138e-03   8.7324291e-04
 -4.2787881e-04   5.3146598e-04
  1.3140650e-03   4.0605254e-04
 -8.5983472e-03   3.9330576e-04
  5.5499920e-03   4.9249781e-04
 -5.0164854e-05   3.9619763e-04
 -2.0390464e-04   2.6669801e-04
 -4.0301052e-04   1.2664034e-04
 -2.0550382e-03   5.7516136e-04
 -5.8831990e-04   2.4146397e-04
  2.2248630e-03   3.9852390e-04
 -1.2432458e-04   3.3253309e-04
  3.6705539e-03   2.7861705e-04
  3.1000518e-04   7.5401395e-04
 -8.2314238e-03   4.5207111e-04
 -2.9415276e-03   1.7567325e-04
  2.0194030e-03   4.5518199e-04
 -1.6248861e-03   8.2272606e-04
 -3.5657824e-04   3.0288927e-04
 -4.0315893e-03   3.1170581e-04
  1.7530554e-04   1.3104951e-04
  5.3489846e-03   1.5855950e-04
 -2.2427042e-03   2.4153730e-04
  1.4348239e-04   2.1413244e-04
 -3.1775136e-03   3.2300671e-04
 -1.2662967e-03   7.4386352e-04
 -2.2343365e-03   2.2593522e-04
 -1.7078647e-03   4.6901664e-04
  3.9203424e-04   1.0115779e-03
 -2.2238488e+00   5.4091605e-04
 -1.0723005e-03   4.2294213e-04
  3.3678839e-04   1.5699067e-04
  2.5930617e-03   5.5395160e-04
 -2.6216364e-04   5.2733667e-04
 -2.1042097e-03   4.7934643e-04
 -2.3338061e-03   6.6694897e-04
 -7.9832828e-01   7.5592491e-04
 -1.6953766e-04   4.7540650e-04
 -2.1409986e-03   2.9923517e-04
  5.0618714e-01   4.9278269e-06
  3.1507885e+00   3.0074061e-06
 -1.8155035e+00   9.3430235e-06
  2.3455240e-01   2.4913049e-06
  1.1143034e+00   5.9118383e-06
 -7.7622545e-01   1.0574780e-05
 -1.4801294e+00   4.0688415e-06
 -7.3225596e-03   6.2908794e-06
  1.1910728e+00   3.1870138e-06
  1.1749511e+00   1.0069224e-05
  7.8156000e-01   5.8086976e-06
  1.3533970e+00   3.6481290e-06
  1.3471314e+00   8.7227008e-06
 -9.6924329e-01   4.0472896e-06
 -8.3972573e-01   8.8958868e-06
 -6.6992515e-01   8.3641216e-06
  8.5515684e-01   3.4594526e-05
  2.9177659e+00   5.3819953e-05
 -2.4283366e-01   2.1553951e-05
 -5.6276751e-01   1.0312922e-05
 -8.6189896e-01   6.4034066e-05
  1.0265164e-01   1.1592160e-06
  7.2105460e-02   3.8500325e-06
  1.9660345e-03   6.3792650e-05
  1.9119812e-02   5.2945866e-06
  5.5788662e-03   2.7917402e-05
 -9.3396172e-02   3.2832741e-05
 -4.1203153e-01   3.5149711e-05
  1.5973574e+00   1.3653103e-04
  1.7928694e-01   2.9147046e-05
  4.6788678e-01   4.3273380e-05
  3.3105965e+00   1.6090642e-04
  2.1009177e-02   4.5455049e-06
  1.4854473e-01   4.4892364e-05
 -7.5651032e-01   2.9918670e-05
 -1.3399389e-01   3.5133606e-05
 -1.8867892e-01   9.3971977e-07
  1.6116872e-01   3.1703832e-05
 -4.6930277e-01   2.8149672e-05
  2.5179348e+00   5.5238921e-05
  5.4325950e-01   4.5510667e-05
  4.4940328e-03   4.9910799e-05
  1.6335167e+00   1.2932380e-04
 -2.6490784e-01   3.1508778e-05
 -3.2090493e-02   2.7844058e-05
 -2.5311673e-01   4.0229144e-05
  1.2356818e-01   2.1658110e-05
 -1.0332420e-01   4.7548339e-05
 -2.2018528e-01   3.7609272e-05
 -1.2698538e-04   7.6275348e-05
 -6.1105472e-01   6.7371016e-05
  1.1970745e-01   1.3655900e-05
  1.3828862e-01   6.0203896e-05
  1.8127699e+00   8.4458181e-05
  7.2271693e-01   2.9373601e-05
 -7.3756725e-01   2.0330441e-05
 -6.4941347e-01   2.3120760e-05
 -2.2219707e-01   1.4090865e-05
 -9.8317429e-02   1.4959159e-05
  1.6128577e-01   1.7134722e-05
 -9.1070569e-01   4.0398114e-05
  1.6952626e-03   7.2879600e-05
  3.0794704e-01   4.5041914e-05
  1.8147105e-01   7.2316041e-05
  5.2443426e-02   1.1697838e-04
  5.7822332e-02   1.3348809e-04
  3.7252981e-02   2.3738379e-05
 -5.9521206e-02   7.5559794e-05
  6.3332603e-03   5.4646433e-05
  8.0147929e-02   6.3404070e-05
  3.5722762e-01   2.3538139e-05
 -2.9021302e-02   1.5895040e-04
  2.6540533e-01   5.7761081e-05
 -8.6437309e-01   9.0183217e-05
  1.0570692e-01   1.0641580e-04
  3.2455260e-01   7.6613338e-05
 -7.3236801e-02   4.3118238e-05
 -2.2850165e-01   3.6163861e-04
  3.6164276e-02   1.2176482e-04
  1.9691861e+00   4.5808330e-05
  3.2345443e-03   2.7484374e-04
  3.2961115e-02   1.2764282e-04
 -8.9216298e-01   1.8421885e-04
  8.0144679e-04   2.2313093e-04
 -4.4946325e-01   1.3629190e-05
 -1.2127457e-01   4.2112713e-04
 -3.1472608e-01   1.1208371e-04
 -8.6131465e-01   4.0408588e-04
 -1.6145934e-01   1.6407327e-04
  1.9022748e-02   5.2117070e-05
 -1.3061680e-01   2.4925239e-04
 -1.3181684e-04   4.2662912e-04
 -2.1526843e-01   3.3180483e-04
 -7.1081564e-02   1.7994005e-04
  4.9750444e-02   6.7524117e-04
 -2.9676339e-01   6.9168083e-05
  1.8601701e-01   2.6686137e-04
  2.7446220e-02   5.9990137e-04
 -3.0501606e-03   5.5266620e-04
  1.5788493e-05   2.9183683e-04
  1.0895707e-01   1.0853526e-04
  7.8824952e-02   4.1354148e-04
 -7.8791287e-03   3.4175877e-04
 -1.4812822e-02   3.1207199e-04
 -6.0519244e-04   1.5989269e-04
  6.0956445e-02   2.5875066e-04
 -2.4460882e-01   1.1776316e-04
  2.5976139e-01   3.1215625e-04
  4.5827657e-02   1.0219682e-03
 -9.1508394e-03   3.5343840e-04
 -1.3772850e-01   1.2654371e-03
 -5.4122903e-03   1.9073176e-04
 -1.7897730e-01   3.1512999e-04
 -7.0229842e-04   2.9563173e-04
 -3.0613331e-02   1.8135417e-04
 -2.1674486e-01   3.4927602e-05
 -3.5935211e-01   3.0332230e-04
 -3.7180012e-01   1.6579247e-04
 -2.2419761e-01   4.1334195e-05
 -2.6657221e-01   5.8581692e-05
 -1.0742190e-01   4.6379297e-05
  5.3454068e-02   9.5789517e-05
 -4.9084657e-01   1.3053744e-05
 -4.3901649e-01   9.6664138e-05
 -2.8566685e-02   1.4988701e-04
 -9.5746022e-01   1.0178880e-04
 -4.0994143e-01   1.2388169e-04
  2.9164141e-01   1.0628472e-04
 -5.5535096e-01   2.3205024e-04
  2.0030551e-01   2.9043054e-05
  2.1873751e-01   7.0725160e-05
 -1.9773689e-01   1.6149752e-04
  4.6281406e-01   9.0871792e-05
 -6.8136901e-03   8.7422966e-05
 -1.9032000e-02   9.1630893e-05
  1.3745043e-01   1.0151757e-04
 -7.7653831e-01   1.2218322e-04
 -6.6125288e-04   1.2488074e-04
  3.3568123e-03   8.0210863e-05
  3.5067770e-01   1.7204689e-04
 -1.2413011e-01   1.5972102e-04
  1.1273369e+00   1.2778271e-04
  2.3853776e-01   1.0514328e-04
  5.6492213e-02   1.7567852e-05
 -1.8164013e-01   8.0058118e-05
  5.6808460e-01   1.2556792e-04
 -6.6060722e-01   1.6375014e-04
 -1.9252233e-01   2.4920443e-04
 -4.4069391e-02   4.5931418e-05
 -1.1574206e-01   2.7991828e-04
  1.8685417e-01   1.7799390e-04
 -1.5863962e-02   3.5286081e-04
 -3.3170882e-01   1.6821687e-04
  2.0003827e-01   2.5666374e-04
  4.6605155e-01   1.2030436e-04
 -2.5103927e-01   1.9617759e-04
  1.5120265e-01   8.5990316e-05
 -3.2873057e-02   4.7691025e-05
  4.1711181e-01   3.0785821e-05
 -1.7775711e-02   2.0669383e-04
 -1.4673461e-01   1.8054215e-04
  8.9769030e-01   1.6894905e-04
 -3.1004562e-03   3.3899982e-04
  2.8343257e-01   2.4929031e-04
  5.4752135e-01   5.7998437e-05
 -2.2413407e-01   6.2759340e-05
 -5.7312202e-02   1.1626710e-04
  3.9828146e-01   3.9432500e-05
  2.3541340e-01   1.1311718e-04
  6.4976388e-01   8.3582294e-05
  8.8283636e-02   1.6425626e-04
 -7.1612179e-02   1.5039608e-04
  4.4821125e-02   2.2368376e-04
  3.8540220e-01   5.0292152e-04
 -2.4918512e-01   3.2198930e-04
 -1.2137029e-01   2.4927920e-04
  8.0501902e-01   1.5228223e-04
 -5.8856569e-03   1.3427190e-04
 -1.7049478e-01   2.3706838e-05
  4.1538635e-01   8.0233782e-05
  2.5422331e-03   3.2129933e-04
 -1.8954632e-03   2.2414020e-04
 -9.1984667e-02   4.0957125e-04
 -6.9145924e-01   2.0128278e-04
  3.0666008e-04   5.0558994e-04
 -3.1452934e-04   4.7732104e-04
  6.2922845e-05   7.2751247e-04
 -2.4715400e-01   5.6182040e-04
  1.2689989e+00   1.0750962e-04
  1.5575241e-03   2.3226811e-04
  1.0303064e-01   6.1631645e-04
  1.4605055e-03   1.7506249e-04
  8.3447393e-04   6.4569816e-04
  3.2216477e-01   1.8058885e-04
  6.9210865e-04   3.0090965e-04
  2.4973738e-03   2.3904846e-04
  4.3207945e-04   8.2984334e-04
 -1.0473735e-03   4.6636243e-04
  1.0249978e-03   2.9230129e-04
 -3.4262501e-03   2.8653920e-04
 -2.0866964e-03   5.8885908e-04
  4.0343567e-03   6.9169514e-04
  5.9304293e-06   2.2564018e-04
  1.3941217e-03   2.3819714e-04
  1.1561990e-03   2.7686523e-04
 -2.7943854e-03   6.0445361e-04
 -1.8519160e-04   3.3850854e-04
 -1.9644550e-03   1.6934019e-04
  3.0784570e-03   9.0191944e-04
 -2.8849088e-04   5.9412286e-04
 -1.4247409e-03   2.2002165e-04
  7.7351264e-04   2.2598001e-04
 -6.4374163e-04   2.7811038e-04
 -8.7518677e-02   1.8268460e-04
 -1.5787253e-03   2.0295293e-04
  3.5905153e-01   2.0379441e-04
 -1.9861381e-03   2.8088718e-04
  4.8574791e-03   3.1481645e-04
  2.5194691e-04   4.9652142e-04
  4.2138943e-03   3.5565961e-04
  1.6159832e-04   1.6000753e-04
 -2.6868987e-03   3.9306193e-04
 -6.1386330e-03   3.9936474e-04
 -1.2325816e-03   3.2450113e-04
  5.0196680e-03   4.4012189e-04
 -9.4468269e-04   3.3140893e-04
  1.9365957e-03   3.3385082e-04
  1.5970761e-03   8.1026473e-04
 -7.0867199e-04   5.3109258e-04
 -1.1161512e-03   2.4575891e-04
  3.5549165e-03   5.5911450e-04
  6.8662496e-04   2.7205708e-04
 -1.4757343e-03   3.3649485e-04
 -1.8400655e-03   9.3120622e-04
 -8.2235702e-04   5.3950696e-04
 -1.7285780e-03   3.8709759e-04
 -2.6696007e-04   5.3764158e-04
  2.8990538e-04   3.3996429e-04
  1.5238299e-03   3.3934222e-04
  6.4430269e-03   3.0249779e-04
  3.1306047e+00   2.4632167e-04
 -2.8469331e+00   1.1068783e-04
  1.1329713e+00   1.2499712e-04
 -4.7876358e+00   1.1796333e-04
 -1.2254000e-01   4.2506959e-04
 -6.7878097e-01   9.9461584e-05
  3.1362256e-01   7.8948879e-06
  2.0613856e+00   1.3017065e-04
  7.5241888e-01   1.7677613e-04
 -1.1874334e+00   9.6086715e-06
 -1.7907950e+00   1.5385111e-05
  3.1597018e-01   2.4178898e-04
  7.9032004e-01   3.0213225e-05
 -6.6011304e-01   1.5503036e-04
 -4.7085443e-01   5.5781824e-05
 -1.7284540e+00   9.0561152e-05
  1.2271608e-01   1.4402533e-04
  1.9781429e-03   4.1558448e-04
  6.2202817e-01   1.6147636e-04
 -1.5711330e+00   6.4578802e-05
  2.9591206e-01   9.4494360e-05
 -3.6845139e-01   1.2986314e-04
 -7.5694436e-01   1.0929273e-04
  7.7878696e-01   7.4408432e-05
  9.1020894e-01   1.2419593e-04
 -2.5159845e-02   2.1077516e-04
 -5.8962429e-01   1.2291459e-04
 -7.7715778e-01   7.3745105e-05
 -6.4821041e-04   2.9767913e-04
  3.1871721e-01   4.5183336e-04
 -1.3988861e+00   1.4950817e-04
  9.8071119e-05   3.4532725e-04
  3.6182177e-01   5.5696437e-04
  5.4712987e-01   1.0819027e-04
 -3.4545865e-03   1.3501087e-04
 -5.4586291e-01   1.6938105e-04
  5.7571220e-01   2.7053853e-04
 -1.5290101e-01   2.6305832e-04
 -3.7823603e-02   5.5923061e-05
 -1.4904480e-01   3.8903800e-05
  4.6164492e-01   8.0606456e-05
 -4.9253315e-01   5.5410742e-04
 -6.7511410e-01   6.2565703e-04
 -7.8432953e-01   1.1853884e-04
  1.4504611e-03   2.4001978e-04
  2.0942392e-04   4.5623403e-04
 -8.0240983e-01   4.9896201e-04
 -1.0059954e+00   2.0178354e-04
 -4.8313078e-01   4.0523766e-04
 -1.0213290e-01   1.4151794e-04
  1.1617506e-03   7.0695620e-04
 -1.3127282e+00   4.2214926e-04
 -2.2551001e-03   4.6967831e-04
  1.4313401e-03   6.1828457e-04
  2.5520694e-01   4.8946746e-04
  7.3012621e-03   3.9948733e-05
  1.3569165e-04   7.2546594e-05
 -9.6140645e-02   8.1967388e-04
  4.8440674e-01   2.1581117e-04
  4.7881905e-02   4.9700611e-04
  8.2459188e-01   4.0028637e-05
  6.0590881e-01   1.0111104e-04
  6.3674343e-01   5.2730553e-05
 -1.9025146e+00   1.4508957e-04
  1.1077075e+00   7.0188027e-05
  5.1426172e-01   6.0537684e-05
 -2.5356903e+00   3.6608246e-05
  1.7107807e+00   3.1598590e-04
  2.8813908e-02   2.2122360e-04
 -4.3987218e-01   1.1343572e-04
  1.5678378e+00   2.6219952e-04
 -1.0470133e+00   1.9493036e-04
  2.1525823e-01   4.6858382e-05
  1.0515072e+00   1.0227137e-04
 -2.2390181e-01   1.1377575e-04
  2.0538850e+00   4.1168816e-05
 -1.0090847e-02   1.8029036e-04
 -4.2521660e-04   2.6678978e-04
  4.3704983e-02   1.3916366e-03
 -1.2327183e-01   3.6971577e-04
 -8.3403470e-04   3.9267424e-04
 -1.4364569e-01   2.1234850e-04
 -1.1563697e+00   3.7826222e-04
  1.7549656e-04   2.6216119e-04
  2.2827865e-01   1.0191649e-03
 -1.1900629e+00   2.3811375e-04
 -1.2420409e+00   4.9447309e-04
 -6.0072583e-01   1.0037485e-04
 -2.8757474e-01   9.8211481e-04
  7.7756126e-03   5.5093359e-04
 -2.9759461e-01   1.4536727e-04
 -1.8742017e-01   1.1618306e-03
  2.1875004e-01   8.4116077e-04
 -1.4469576e+00   8.3076855e-04
 -9.5593987e-04   3.9582868e-04
  1.1980200e-01   3.1059468e-04
  1.4760199e-03   3.6687951e-04
 -7.2824162e-01   2.4476438e-04
 -6.5403663e-02   4.5421044e-04
 -4.5009679e-03   6.7038520e-04
  6.4111662e-01   4.9244682e-05
 -1.0573815e-02   7.6330290e-04
 -1.4096636e-02   4.8295810e-04
  3.7414212e-02   2.9732950e-04
 -7.9304287e-03   5.9244345e-04
  1.0649944e-03   6.5796572e-04
 -7.6560110e-01   3.4533022e-04
  1.9318046e-01   1.2449612e-03
 -2.6574848e-02   1.1332476e-03
  9.3061803e-04   3.0131527e-04
 -6.9560423e-02   5.0299813e-04
 -3.2329980e-01   1.3595614e-04
  2.0420703e-03   9.3621103e-04
 -3.0367240e-02   1.7893755e-04
  2.8699794e-01   8.2924031e-04
 -8.1267621e-04   4.0715764e-04
 -7.2941220e-01   4.7623907e-04
  1.2563775e-01   2.4541665e-04
 -3.2001190e-02   3.0754437e-04
 -8.5644722e-02   1.0437333e-04
  5.0003260e-01   1.1913773e-03
  5.2889746e-01   6.1912299e-04
  8.6661913e-02   3.9998748e-04
  2.9444888e-01   5.9612561e-04
  1.8585466e-01   1.8180360e-04
  3.5795134e-01   5.4868619e-04
  3.1859137e-02   8.5806719e-04
  2.8766701e-01   4.2117800e-04
  1.1408697e-01   6.4384367e-04
 -2.0024656e-04   7.8952924e-04
  5.6249708e-01   5.0469604e-04
  5.2429646e-01   1.5763029e-03
 -4.3968100e-04   7.1003265e-04
  1.2294629e-01   6.7237410e-04
  6.0669589e-01   3.0851155e-04
  5.7648584e-02   5.1941274e-04
  6.6955584e-01   1.7395188e-04
 -2.4396244e-03   5.5853120e-04
 -1.0617721e-01   7.2756159e-04
 -8.4887838e-01   6.1554521e-05
  9.2365053e-03   2.0352378e-04
 -7.7953483e-03   8.1719924e-04
  8.7771140e-02   1.3208504e-04
  1.3370951e-01   8.1145839e-04
  2.2410057e-03   6.1861932e-04
 -2.1710918e+00   9.7755648e-05
  9.0149325e-01   5.9271278e-04
 -2.6287909e+00   8.0891812e-05
  3.7183103e-01   5.0106854e-04
  1.1149107e-02   4.8474362e-04
  1.3435898e+00   1.9512266e-04
  2.1567976e+00   4.0153027e-05
  1.0768784e-03   4.9654982e-04
  2.8674829e-01   5.8999085e-05
 -4.7721714e-04   4.9507193e-04
  2.0566766e-01   5.9125159e-05
  4.4041893e-01   9.4769304e-05
 -1.4720061e-04   2.5822141e-04
  4.8264849e-01   6.8768644e-04
  6.3236855e-02   1.9423406e-04
  8.9956110e-04   5.5160845e-04
  6.8568856e-02   2.7292978e-04
  1.1539101e-03   5.1334815e-04
 -9.4126340e-04   6.2022958e-04
 -5.7347963e-04   3.4325814e-04
  1.7850238e-03   6.1425431e-05
  1.5932701e+00   1.6742469e-04
 -1.9171306e-01   1.9673824e-04
  1.1209337e-04   2.7355342e-04
  2.2396902e-04   1.5416094e-04
 -2.4440401e-04   3.6299459e-04
 -9.5307647e-04   6.1284634e-04
  5.7874196e-03   8.7723561e-04
 -5.1464315e-04   5.0166470e-04
 -4.9321773e-03   5.4420723e-04
  5.5331107e-02   1.3377551e-04
  2.0447925e-03   8.3411526e-04
  3.3091676e-01   3.5108186e-04
  3.7869424e-01   3.0694329e-04
 -8.6934748e-04   4.2227391e-04
 -5.3886730e-02   1.3848208e-04
  1.9000093e+00   1.6310489e-04
  1.4229372e+00   1.0950492e-04
  1.9560528e+00   1.6186920e-04
 -1.3988016e+00   1.6621059e-04
  6.1733508e-01   9.7081647e-05
  1.8418167e+00   2.1524096e-04
 -4.5261204e-01   9.8411161e-05
  3.1974319e-02   2.2645551e-04
  6.6117257e-02   1.9986424e-04
 -1.1032189e+00   8.4006344e-05
  9.6215892e-01   3.4104683e-04
  2.1618041e-01   1.5653794e-04
 -3.5573657e+00   2.6771976e-04
 -8.5718912e-01   2.7118801e-04
 -3.2499406e-02   2.3622728e-04
  2.3823515e-01   1.6594616e-04
  8.5509086e-01   1.8903702e-04
  1.0418423e-01   2.3783484e-04
 -2.0238514e+00   1.8224241e-04
 -1.2596657e+00   6.4013308e-05
  7.8712530e-02   8.9978764e-04
 -1.8331548e-02   3.8668502e-04
 -4.1898432e-01   2.5196077e-04
 -5.5132806e-01   2.7038648e-05
  2.9983521e-01   9.8133343e-05
  6.8751145e-03   2.4153122e-05
 -1.6291611e+00   2.7590009e-04
  6.2502611e-01   8.6514025e-05
  3.5758689e-02   1.7455962e-04
 -1.9394767e-01   1.4957490e-04
  8.2762372e-01   3.4350751e-04
  4.3170181e-01   1.1066501e-04
  6.5487516e-01   3.0225387e-04
 -1.4706433e+00   1.6193083e-04
 -1.5630485e-01   6.0424220e-04
 -5.6088571e-02   3.3510503e-04
  6.2862808e-01   7.2358758e-04
  1.3947767e-03   1.9752049e-04
 -3.7283862e-03   6.3121854e-04
  1.2269337e-01   5.6398293e-04
 -6.0352795e-02   7.2284939e-04
  1.4910328e-01   2.8064448e-04
  1.1617071e-03   3.5261104e-04
 -1.8499151e-03   6.4928056e-04
  5.3849261e-02   3.7242883e-04
  5.3181589e-01   7.9180510e-04
 -7.9641643e-04   6.6404155e-04
  7.3862292e-02   7.4009254e-04
  6.6796976e-01   1.6306955e-04
  8.5677940e-01   3.7343323e-04
 -1.3558958e+00   1.4453100e-04
  7.2326525e-03   4.3934461e-04
 -3.5327334e+00   3.5095689e-04
 -4.1739258e-01   1.6857171e-04
  1.5218262e-01   1.2527487e-03
  7.3682773e-01   5.8103696e-04
  2.1610339e-01   4.4548820e-04
 -3.3530467e-03   5.6988106e-04
 -4.2512733e-01   2.6905595e-04
 -1.2638382e+00   7.4268151e-05
 -1.9671921e+00   4.8493668e-05
  1.7316891e+00   2.3500526e-05
  1.5941174e-01   6.6175133e-05
 -1.1298546e+00   3.8743379e-05
  1.4124656e+00   6.3281470e-05
  1.5491815e+00   8.9267422e-05
 -8.4553999e-01   1.2161044e-04
  2.6302227e-01   1.0195405e-04
  1.5137261e-01   2.2078153e-05
 -7.3298579e-01   9.2313465e-05
  1.2503990e+00   1.6515011e-04
  2.7909926e-01   1.7472767e-04
 -1.2195433e+00   7.3932475e-05
  8.6636198e-01   6.8376692e-05
  1.9597659e-01   4.7797606e-05
 -2.5741110e-02   6.8811409e-05
  1.7045236e-03   3.8516353e-04
  3.1069267e-01   8.5489941e-04
  8.2497925e-01   1.2038765e-04
 -7.7245720e-03   6.1342353e-04
  9.8318017e-01   6.0083711e-04
 -9.2730862e-01   2.8671621e-04
  6.0444230e-01   8.7297446e-04
  2.6031291e-01   4.0480713e-04
 -5.1472467e-01   3.5274652e-04
  1.6642819e-01   6.0575717e-04
 -2.6409525e-01   2.6296458e-04
 -4.3721483e-03   4.1669034e-04
  2.3150852e-01   9.8622567e-04
 -3.0299393e-03   2.4922824e-04
  8.9442462e-04   2.6983779e-04
 -1.0767090e-03   1.1253041e-04
 -6.5502620e-01   1.1545741e-03
  1.2467741e-03   4.6356756e-04
  3.8500616e-01   9.5329939e-05
 -3.3301583e-01   3.5629302e-04
 -2.1311554e-01   1.8344296e-04
  2.9350449e-03   6.2626443e-04
 -3.3504248e-03   5.5833883e-04
  1.5703983e+00   8.2666386e-04
  6.7003962e-04   6.5692834e-04
 -6.2205303e-01   7.9875688e-05
  9.1758710e-01   2.0116131e-04
  1.9034170e-04   6.3928362e-04
  4.0344253e-01   1.5074399e-03
 -2.1494786e-01   3.8532962e-04
  3.2929808e-01   3.1476428e-03
  7.1828866e-01   1.4812354e-03
 -4.9115191e-03   3.1995709e-04
 -5.9746699e-03   4.4911323e-04
  5.5696684e-01   6.8262056e-04
 -1.7711383e-03   3.3889886e-04
  5.8119395e-04   3.8903017e-04
  8.0093682e-02   3.3717742e-04
 -5.7902926e-01   1.9259767e-03
  9.4302781e-03   4.9388676e-04
 -8.4062868e-01   2.3655598e-04
 -5.5836332e-01   1.3594892e-03
 -3.3269906e-01   1.2777334e-04
  3.2836601e-01   1.5562112e-04
  3.0382866e-01   3.1015795e-04
  5.5205636e-02   1.7386727e-04
 -2.3958348e-01   5.8256650e-05
  4.5101631e-01   3.8148879e-04
  6.2808019e-01   1.8411204e-04
  7.7186584e-02   1.2129403e-04
  3.3050495e-01   2.8429853e-04
 -1.1816884e-03   1.1602251e-04
  7.8170198e-01   2.1499895e-04
  8.7282646e-01   2.5103518e-04
 -3.6636025e-01   1.8936250e-04
  9.2972089e-03   1.3626246e-04
  7.7050442e-01   3.9909570e-04
 -1.0555692e+00   3.0373302e-04
 -7.3011810e-01   2.0369410e-04
  1.8445378e-03   2.8020519e-04
 -3.1292418e-01   4.8893993e-04
  9.6863908e-01   2.4316041e-04
  3.7273567e-02   1.2282217e-04
 -4.0407458e-01   5.6811393e-04
 -8.2996133e-04   5.1737594e-04
  7.5602221e-01   3.4084768e-04
 -2.0520179e-01   3.7775855e-04
  9.2999592e-02   4.5947981e-04
  2.6004755e-01   8.4264087e-05
  1.0451836e-03   2.7044758e-04
  1.6084095e-03   3.2223787e-04
 -4.3045537e-04   3.5130040e-04
  1.1023937e-01   6.1226758e-04
 -4.9206874e-01   1.2886961e-04
  5.7042233e-04   1.7168536e-04
 -3.9845559e-01   2.4006060e-04
 -5.1855904e-01   4.7997118e-04
  7.6825167e-03   6.5800286e-04
  4.2571896e-01   4.3817976e-04
 -1.3261336e+00   6.0907000e-04