13500
Time=99999.99999996 pbc="T T T" Lattice="49.44587634 0.00000000 0.00000000 0.00000000 49.44587634 0.00000000 0.00000000 0.00000000 98.89175267" energy=-101605.87277699 virial="-5073.43971520 -240.29472040 -87.93363932 -240.29472040 -5469.67865408 -100.53887788 -87.93363932 -100.53887788 -3356.71232165" stress="-0.00390250 -0.00099382 -0.00036368 -0.00099382 -0.00554129 -0.00041581 -0.00036368 -0.00041581 0.00319763" Properties=species:S:1:pos:R:3
W 2.18162071 5.58428500 92.91317810
W 1.70828164 3.70312112 2.09634975
W 0.62242522 2.08026512 3.52193595
W 2.21465501 3.68713980 5.23233381
W 0.32501931 2.13377162 6.87321275
W 1.91587000 3.73842052 8.39629976
W 0.83195195 1.95870406 10.20966220
W 2.47359018 3.58371129 12.11583114
W 0.66946260 1.81159485 13.66581295
W 2.63994668 3.41945206 14.69738225
W 0.95688937 1.72049697 16.57088296
W 2.30111368 3.42032104 18.38146436
W 0.57664466 1.71981405 19.90994510
W 2.25715176 3.85856557 21.68401279
W 0.88665541 1.72114325 22.97446379
W 2.17555711 3.73061080 24.24774785
W 0.79672669 2.13016457 26.31695283
W 2.05333227 3.05788680 28.46321653
W 49.39375450 1.41077100 29.94847494
W 2.32366428 3.56904906 31.25828904
W 0.31002769 1.80874008 32.95014613
W 2.25522407 3.63838582 34.59675400
W 0.57710861 2.11032271 36.27167317
W 2.46857814 3.79251476 37.76076553
W 0.65966944 1.50218399 39.59185426
W 2.08120268 3.96584273 40.55302492
W 1.00362653 1.67027355 42.54368787
W 2.24832722 3.88303374 44.05155098
W 4.27904960 2.55614161 51.76377742
W 2.68601853 3.58975894 47.19996025
W 0.56643117 2.65971885 48.17944506
W 37.20977786 16.81313875 68.71906818
W 20.01647801 2.34915822 48.83513351
W 5.24136725 32.92002921 94.72959761
W 42.20285795 16.98874393 71.48476822
W 27.08692922 6.80380076 60.17860574
W 30.51942591 36.97389753 64.33570023
W 30.90887867 45.29874960 63.57411724
W 5.36595956 13.23103980 87.84503568
W 40.29688846 18.03341351 52.44259334
W 34.21860135 16.03611636 75.94533764
W 34.48994503 37.18226037 77.98498995
W 34.06066801 12.62428902 93.09308161
W 23.16327929 16.86583703 88.32640385
W 44.49513175 32.76292371 94.71241739
W 22.81892221 47.98973174 60.52156335
W 22.60021981 27.30182595 91.75424593
W 31.93422289 6.92212909 79.51463142
W 16.26560108 45.20788295 58.17135828
W 36.74655021 1.19847453 83.11491418
W 33.04727143 39.87239165 78.53181744
W 0.36235830 9.52359496 92.47759161
W 17.44257055 25.37867753 64.39422218
W 17.68923064 45.26501475 68.42157554
W 18.87319248 36.66866181 97.86630425
W 46.77415587 8.45160418 55.91851088
W 4.15623728 0.60509179 57.40747948
W 16.31573013 19.40539336 91.29758695
W 37.51346004 39.36032632 75.34497301
W 1.54386768 48.97400596 97.30034574
W 0.64086220 5.39701983 0.36662397
W 4.87672993 47.82666274 92.31691332
W 0.63978811 5.21040666 3.84169746
W 2.21588594 6.79905906 5.15712675
W 0.61917700 5.18662626 6.60340561
W 2.85614437 7.04356264 8.45317486
W 0.45571634 5.26865790 10.39270419
W 1.96721461 6.52774856 11.92507217
W 0.75355849 4.95153065 13.31720564
W 2.31405991 6.69370285 15.01906189
W 0.86064958 4.83718442 16.57917091
W 2.24561959 6.80177230 18.71399028
W 0.27567824 5.13620260 19.92131747
W 2.07344074 6.72944872 21.64345133
W 0.63229475 5.68398637 23.25522121
W 2.18803780 6.89182299 24.62314156
W 1.19719782 4.51068723 26.42889472
W 1.92225930 6.81056170 28.13323310
W 0.38291007 4.84334029 30.01935217
W 1.89684202 6.65853898 30.88309332
W 0.67364171 5.25707412 33.08300663
W 2.50555023 6.61482780 34.31376715
W 0.73793930 5.53667692 36.13062223
W 1.97192930 7.07298153 37.73790980
W 0.66838023 5.40746457 39.17894623
W 1.96250202 6.72957380 41.03430089
W 0.50404282 4.90273048 42.65974631
W 2.01675541 6.94755871 43.50634743
W 0.54206256 5.59450614 45.45128892
W 2.28965342 7.03837667 47.53420636
W 1.75229527 41.15178199 82.49275988
W 2.70707593 21.49931801 58.87921523
W 6.29191511 20.67452420 72.24221140
W 12.48986993 39.53970294 60.87566944
W 45.55125215 9.72068622 86.19738617
W 46.89874456 2.25846552 48.48619999
W 25.60896497 40.14287514 52.56085217
W 38.51942748 36.12513849 94.69597875
W 11.29252081 49.56114473 59.41585546
W 7.76333306 23.31268457 68.30473752
W 38.48186900 29.74296767 57.59890182
W 19.71875405 35.31524281 65.41567534
W 13.66031301 13.17542384 81.75731529
W 20.92117857 24.85958171 64.59429984
W 8.75597883 10.37922540 50.13466833
W 16.45473553 41.39926312 74.12013251
W 36.15218950 20.79745452 72.52945719
W 42.64588253 30.06960032 89.71767611
W 44.77759854 14.10356418 81.87383711
W 32.93560245 39.12791258 59.81068403
W 2.88153281 16.18405958 56.22355657
W 33.21810257 35.68470443 56.58147621
W 16.92489029 37.62029588 83.36333561
W 9.07277722 10.80423698 60.93474951
W 37.25989022 22.26359626 55.27735090
W 22.31136971 15.76857549 67.33075944
W 13.52699126 35.35555289 52.69990394
W 47.20817718 11.74919050 88.73972693
W 6.61805042 23.87854533 92.13393252
W 38.65233998 2.39586157 80.89230162
W 5.58499833 7.14678302 1.99816174
W 2.07529155 10.00223067 2.12610181
W 0.53541632 8.60810622 3.75407557
W 2.38158808 10.10383380 5.32511326
W 0.95892406 8.55427402 6.78759874
W 2.27234323 10.18828637 8.46886768
W 0.52610314 8.44608295 9.89725547
W 2.09593474 10.01278342 11.84573800
W 0.68903923 8.35214936 13.61990668
W 2.15456857 9.57626770 15.05258063
W 0.60997694 8.41825788 16.58893340
W 2.29645909 10.04786573 17.97170250
W 0.83723974 8.71282357 19.80960163
W 2.39567246 10.03737809 21.60781971
W 0.67010617 8.78429047 23.05204901
W 2.31325199 10.58344338 24.77452528
W 0.72334480 8.41930559 26.52620644
W 2.15304554 10.55528744 27.67503399
W 0.21252616 8.26039284 29.47548666
W 2.35274232 10.07123410 31.08370885
W 0.47060723 8.43069797 32.51582558
W 2.37244971 10.16982615 34.13314905
W 0.61531811 8.64885901 35.68517463
W 2.02868636 10.52057226 37.51124161
W 0.71119934 8.87552207 39.20160846
W 2.36199764 10.49548691 40.92771728
W 0.68142113 9.22720481 42.35773551
W 2.52260053 10.55057757 44.13203556
W 0.81002045 8.89113589 45.48514557
W 2.41905289 10.35745820 47.27017312
W 47.41089853 41.72426159 58.91457127
W 16.59516271 5.22135800 48.51251040
W 19.02609230 41.04516366 58.32029750
W 23.78074535 3.17658221 62.06109109
W 15.84274051 39.84145148 53.37779596
W 7.53766502 19.29610674 54.64815690
W 48.37149143 24.50607639 62.37120945
W 1.85815228 3.74547413 56.67958077
W 26.59876616 38.52936487 48.86079902
W 49.11587764 2.97849332 76.78801413
W 30.11267526 33.86191749 87.96579835
W 21.15027538 21.29601144 79.51016309
W 7.64196625 45.39962160 69.50713951
W 10.36955856 13.02910766 86.73781427
W 46.72583170 21.47127982 0.80799833
W 36.09372968 15.07078414 83.99383517
W 26.07704561 35.78450383 65.41128273
W 33.70744476 41.30590012 86.49503137
W 2.17640262 7.08862783 50.77319996
W 27.31884125 30.71793464 86.90930414
W 16.58362339 29.04652551 63.61714247
W 23.62611245 35.13941665 93.54813692
W 36.35883931 5.29818450 96.32832456
W 32.14298945 46.85534266 86.03188113
W 25.97656907 17.56306281 87.34145383
W 7.08718991 41.94622545 86.16731616
W 32.25483019 31.89833701 72.21944571
W 14.04810643 48.44385324 55.58597296
W 42.81323190 14.45527879 73.64378368
W 47.00970349 48.02994253 61.74080679
W 0.30837787 11.77912760 0.50514655
W 2.61510902 13.36551063 1.97813763
W 0.62792034 11.91029099 3.91599057
W 2.31563892 13.27649688 5.46616469
W 0.83386716 11.67322596 6.82090592
W 2.60841775 13.40711950 8.95744986
W 0.93424279 11.46682366 10.15915793
W 2.23257221 13.13551233 11.97844471
W 0.39792451 11.70090263 12.79722496
W 2.24593321 13.65045855 15.20095766
W 0.98941733 12.03291097 16.61615767
W 2.29286946 13.31903282 18.25743919
W 0.78661230 11.77438749 19.87201641
W 2.34915964 13.29491536 21.61434626
W 0.36088883 11.55774111 23.14028510
W 2.08304891 13.61304124 24.84888897
W 0.68671580 11.93412876 26.21226710
W 1.91858575 13.20581196 28.59064185
W 0.21852443 11.75630365 29.28043231
W 2.75180444 13.62228752 31.02105800
W 0.96702169 11.78163220 32.00028235
W 2.75384737 13.23056869 34.51484040
W 0.73190265 11.78872056 36.05212408
W 4.08847354 15.19894163 35.96272934
W 0.54628979 12.12896932 39.49357618
W 2.53627668 13.77777279 40.79891012
W 0.54993348 12.09873990 42.59151561
W 2.19135130 13.72587921 43.92337641
W 0.60595461 11.93688863 45.66076705
W 2.23750036 13.54848681 47.40861262
W 16.96243562 4.54255598 68.91307790
W 0.20738737 18.89530950 48.64817103
W 41.83539824 18.74462634 79.29743989
W 9.06344117 30.04090800 53.94480894
W 13.02918693 19.70056353 85.12558858
W 37.43506133 4.07515483 69.69689897
W 18.63526399 28.88711009 94.67769736
W 32.87119764 15.33176530 92.48302797
W 5.81953141 38.39744472 64.12768206
W 25.43207055 38.82972742 62.99042420
W 9.43127819 49.18091561 75.73534143
W 41.41577378 9.26288923 88.46707360
W 9.63726283 26.44679887 72.54181039
W 18.92701239 9.63964660 84.67503953
W 38.87116230 20.44766122 79.45628442
W 34.45665509 6.71418116 97.70229523
W 47.16471429 48.46807648 51.82036579
W 34.80796364 37.35253786 65.90012738
W 24.26819077 20.66465573 80.55378955
W 27.86538122 24.47171485 85.89867173
W 32.85981848 36.84410048 63.67442115
W 10.87552763 34.20817874 82.95231447
W 43.07407887 21.84456605 67.39658373
W 14.96383657 10.05590769 57.61042694
W 3.77246629 44.88614236 96.21913441
W 12.96207421 30.07049771 85.93319219
W 2.52973068 42.72881351 94.37398727
W 3.68607399 11.88877883 48.87494623
W 26.98087428 26.69093429 71.82154184
W 33.00637077 34.58048160 52.37116233
W 0.82960179 15.02017506 1.15221609
W 2.57259512 16.51872775 1.97132869
W 0.95686546 15.09343708 4.19595641
W 1.98860699 17.04282036 5.63814413
W 1.19275222 14.99854688 7.11596236
W 2.42025731 16.72230827 9.05864252
W 0.99973118 14.98620987 10.29421368
W 2.33793683 16.97538401 11.95614746
W 0.77287326 14.94857731 13.51890281
W 2.46126570 16.55659784 14.94678005
W 0.91450069 14.77029779 16.66128963
W 2.43493495 16.24105863 18.25460234
W 0.33238970 14.80323880 19.87065046
W 2.53380743 16.76529237 21.43237837
W 0.78761927 14.88875986 23.14961877
W 2.21473063 16.78030015 24.53502995
W 0.41254755 14.98905727 26.79441173
W 2.31679484 16.78658810 28.07114166
W 0.41067567 15.07336362 29.88908506
W 2.25025940 16.83120572 31.26528802
W 0.95516244 15.00489295 32.83906842
W 2.17005332 16.71919714 34.80944324
W 0.53186751 15.39816579 36.20167902
W 0.79326396 18.31092889 38.97575134
W 1.94718804 13.58690720 37.76076860
W 2.51466047 17.39135195 40.66268222
W 0.66111800 15.46497854 42.26295363
W 2.43877374 16.98572068 44.39968648
W 0.93714545 15.44242359 45.84388226
W 2.08507250 17.25371592 47.57181558
W 3.40962297 8.88377857 49.17880222
W 41.28872064 30.00522578 98.41649785
W 3.81173941 20.39272195 73.49276905
W 4.43987447 41.80855214 83.26598369
W 11.66790508 4.21697315 66.56194471
W 23.97717527 3.71443667 90.44921664
W 39.91442814 47.17454812 63.09367244
W 0.45274962 25.24733155 55.33674105
W 2.03070061 40.80075727 89.93544906
W 7.06389599 19.17080738 93.23040417
W 26.52543259 44.70265650 74.78869579
W 16.51279706 29.80593585 73.49227952
W 2.08317525 3.99896445 97.48998590
W 36.83642011 21.54169894 94.90802313
W 3.09525158 25.49560707 85.72526342
W 7.60422863 48.47990951 80.04135900
W 7.11645097 34.93967015 0.30902255
W 6.35642623 23.05756390 60.85765327
W 45.07494569 20.07596391 61.97770003
W 33.57111145 5.32682318 48.75341405
W 33.74776383 23.24228508 57.17583467
W 32.29561990 33.23556144 91.29803176
W 5.58783028 5.83792948 86.69962265
W 2.64467137 43.09591140 50.05615417
W 4.81384938 37.21736599 73.62762490
W 3.49032946 34.73887842 90.53672353
W 17.60239249 4.26047410 61.98535499
W 28.84224399 16.88924758 94.56328478
W 45.88652121 6.62252558 91.86921909
W 8.85160351 33.27994585 91.25324877
W 4.12835286 18.44648256 0.58391644
W 2.38524276 19.78316774 1.95631857
W 0.84898461 18.73442386 3.93625489
W 2.59973125 19.95404638 5.51501251
W 0.46666379 18.20010360 7.25730160
W 2.35746242 19.82573689 8.51848875
W 0.54902649 18.56257755 10.18178778
W 2.19706458 20.17614094 11.70641329
W 0.89374907 18.68858043 13.57178428
W 2.31459006 20.38080114 14.79910746
W 1.24397192 17.99757050 17.12441471
W 2.17173045 20.10673581 18.03279218
W 0.56023941 17.66542851 20.06814677
W 2.04344358 20.16200844 21.72599963
W 0.49557776 18.22839031 23.11521074
W 2.43392817 19.70488970 24.88409363
W 0.99123384 18.19967944 26.54851880
W 2.29349176 20.10851746 27.96818957
W 0.96403798 18.30553805 29.64344714
W 2.38433113 20.34768043 31.40551532
W 0.79271182 18.50890721 33.01917314
W 2.40493728 20.20018854 37.62285032
W 4.10899782 18.82632749 35.77861861
W 0.55639994 21.97281004 35.94248397
W 48.89697280 20.10103584 40.33726329
W 2.38089582 20.25167515 40.60194950
W 46.82387807 18.92963231 42.67940346
W 2.09416846 20.09285842 44.00719779
W 0.73374169 18.49902159 45.62229764
W 2.07286035 20.30319176 47.06933581
W 32.57157567 31.06687440 77.21831580
W 2.21316981 13.49069751 50.58543352
W 48.20255167 17.17664646 91.12866419
W 38.55166797 1.00999108 75.81986725
W 10.41366013 26.65089055 55.98766166
W 13.49582792 38.04966224 52.49459355
W 48.53111957 18.32732778 58.60263227
W 41.06635337 11.73309661 89.45474924
W 40.48408290 41.00303612 65.31816868
W 23.77931083 33.75400011 57.77405199
W 2.05031131 10.87233004 91.07825183
W 8.94415921 11.60818114 82.97539773
W 18.01187800 8.01711535 94.07112287
W 37.68005309 31.73603876 90.08511502
W 46.04219336 44.82546822 78.65733780
W 21.75494654 10.88001022 85.72030355
W 29.17941138 48.22285884 58.90685057
W 0.63008920 31.28585641 71.75999217
W 5.09099270 39.89742556 56.56492312
W 35.76233623 20.52658605 91.50277269
W 1.00071351 22.60295707 84.85497446
W 11.56250357 40.12879984 97.76573168
W 25.58029733 9.46417441 65.29583611
W 15.56487915 48.27113544 57.94501635
W 10.23429013 20.38992273 85.38842955
W 31.73889631 13.56352937 50.93994950
W 0.64525428 14.01495885 68.58909462
W 6.48458956 23.82085149 88.83072265
W 4.06476227 41.74730529 96.08171502
W 7.74507124 6.16996717 51.26316894
W 2.69657997 23.27820128 97.89413163
W 2.07901265 23.26683191 2.14287410
W 0.89209553 21.80791618 4.11756751
W 2.26587242 23.48507415 5.51542113
W 0.52092431 22.10509101 7.11173880
W 1.78592189 23.60167885 9.13337003
W 0.57381750 21.58563756 10.30462329
W 1.78088581 23.38874705 11.95436782
W 0.18672790 21.90036175 13.10615895
W 2.09213172 23.37623203 15.34250675
W 0.70230527 21.76371417 16.67505182
W 2.17104210 23.27911463 18.42153007
W 0.52346385 21.22685579 19.77575876
W 2.30852646 23.23406703 21.09935008
W 0.99645536 21.84504929 23.02944603
W 1.87578124 23.44003480 24.87687863
W 0.32398986 21.64193584 26.17075920
W 2.00475434 23.37856293 27.85530329
W 0.61906726 21.67665597 29.79097259
W 2.27962275 23.38482568 31.20974907
W 0.58785978 21.52333054 32.74960103
W 1.78822212 23.34921401 34.42378429
W 2.23859848 20.05755627 34.36795699
W 2.08442630 23.25765279 37.57569305
W 0.87119909 21.69079195 39.17330598
W 2.67856004 22.96637660 40.77405342
W 0.83574776 21.62356384 42.32752900
W 2.77192099 23.11763924 43.70515346
W 0.73970740 21.91048527 45.54155946
W 2.08423922 23.60012770 47.03839277
W 43.77042669 22.21063742 85.17107980
W 12.47295443 19.43515908 49.87567895
W 46.91041384 27.30421962 62.31490933
W 26.77898750 13.22235831 61.92031433
W 10.17053913 34.38020210 96.26633712
W 42.71771450 36.72355671 56.10469483
W 7.36275114 31.34033508 49.36361092
W 22.32746670 26.69388982 94.98405446
W 35.56748041 24.17095344 94.44963573
W 45.23383146 19.94919305 95.08422867
W 37.05521125 33.92299468 60.05752405
W 36.87797184 2.08446756 74.42994521
W 48.21053399 5.19359119 75.27593625
W 10.92003258 28.73688730 91.97911909
W 37.14054148 25.57838204 52.00710333
W 4.00724895 18.10769800 89.03308763
W 41.77093189 4.66353013 56.46644235
W 41.14980850 17.05938657 81.37324949
W 31.65767642 7.38863611 73.24952324
W 47.98557851 26.66858627 91.62639058
W 21.34395569 15.27729590 83.91050586
W 46.21543911 25.17464699 96.41723077
W 47.57120366 26.21672013 60.16808855
W 46.52381483 34.20185736 72.89070025
W 42.82992828 31.78310849 59.96525922
W 3.60045269 48.23222093 48.49804788
W 10.47173789 22.13355840 65.29070985
W 25.57333888 6.45136366 78.37443082
W 31.28093369 27.35864318 72.20855810
W 2.81136881 20.23540875 97.65279859
W 0.72546860 24.93172725 0.65835856
W 1.98951858 26.58664689 1.96229886
W 0.62029565 24.96127371 4.07082356
W 2.30202259 26.83311230 5.77175676
W 0.62542430 24.95141944 6.84105760
W 2.27664542 26.79926871 8.94422273
W 0.36237048 25.21027411 10.23467317
W 1.93530597 27.04013001 11.89591711
W 0.48986722 25.35832100 13.29252999
W 2.06856722 26.62871511 14.82878627
W 0.57053019 24.99556082 16.83574708
W 2.22652037 26.50646110 18.34348251
W 0.30623584 25.11075084 20.07534360
W 2.09995505 26.79713113 21.44539390
W 0.37899470 25.17533628 23.01326004
W 2.27113430 26.49584779 24.46144065
W 0.19831074 25.09691960 26.07502224
W 2.19963797 26.59423798 27.88230486
W 0.32378094 24.87843803 29.63747448
W 1.70889098 26.64721483 31.21213859
W 0.61195390 24.94218774 32.64596498
W 2.31577691 26.45456100 34.50601676
W 0.59740650 25.11085349 36.19279335
W 2.19083401 26.49297052 37.44989595
W 0.43471796 25.09194151 39.19225831
W 2.28908917 26.46843364 40.59936305
W 0.88718417 24.99035346 42.13780628
W 2.62398832 26.73131221 43.63756652
W 0.93066629 24.79435786 45.27803586
W 2.54671577 26.64409467 46.66018129
W 21.50965954 22.37137778 90.32257110
W 0.32125248 19.95302727 69.93030049
W 19.94853475 21.54689461 49.00331203
W 27.53882384 28.27508937 54.90255227
W 26.35181528 1.68372890 61.47878346
W 2.98470504 39.75785165 49.99454844
W 4.03407853 21.95990250 71.40656449
W 47.05373832 16.80652084 76.65177982
W 10.76935425 48.52065906 96.01061154
W 44.49201760 7.45142016 54.02051988
W 23.37044590 46.65422155 90.87878222
W 3.71547255 34.78377782 96.38234727
W 16.21176326 23.79702418 88.32765674
W 27.54250740 28.44203239 88.24508478
W 44.06919997 24.91215889 58.90627001
W 11.85257643 13.78981415 97.35119968
W 6.00943365 21.74904418 94.17303600
W 6.99450194 18.51729364 48.87283738
W 17.92254303 33.33045554 94.28568752
W 28.94175768 9.39635172 78.14601659
W 10.17207043 22.71554708 94.77778296
W 43.56104202 15.64868335 48.44061355
W 20.20045276 19.66091748 64.82411867
W 44.27072083 32.34715722 86.42404299
W 22.44390816 26.10689801 67.07103683
W 15.17822568 43.10026089 97.95905503
W 41.48636778 43.39254247 77.87366765
W 6.66315553 9.71657082 60.20843179
W 28.07556776 33.41883786 77.11762992
W 34.96669192 42.93759846 57.30890194
W 49.54371532 28.14325464 0.57858051
W 2.26483015 29.88926552 2.44198383
W 0.70481962 28.36011959 3.37989584
W 2.43176532 30.08392480 5.16622291
W 0.92765976 28.55572839 7.44654339
W 2.21268098 29.94845861 9.48890873
W 0.29010170 28.09141562 10.03714788
W 1.80295202 29.53766935 12.10906838
W 0.02045064 28.30600208 13.45545348
W 2.28101624 29.80606977 14.92604017
W 0.51666231 27.88747280 16.53100084
W 2.03286351 29.93628356 18.08565722
W 0.51374150 28.24514196 19.48141611
W 2.31273597 30.07453518 21.23090467
W 0.67192946 28.51989852 23.14597899
W 2.17460140 30.21270408 24.19581026
W 0.62598104 28.50797345 26.33616373
W 2.17874030 29.73639225 27.96588265
W 0.68468610 28.37414425 29.86724202
W 2.25089588 30.15893392 31.28808799
W 0.45765210 28.33248215 33.11985495
W 2.15444562 29.91679981 34.19914536
W 49.57106686 28.51149886 36.04407335
W 2.30896685 29.93214826 37.43428633
W 0.66952616 28.58556469 39.04703695
W 2.54977300 30.24708032 40.35972047
W 1.11194254 28.27942408 42.15783267
W 2.58678245 29.95776148 44.04785496
W 0.91753574 28.55695192 45.41989368
W 2.34121159 30.14732761 46.84122037
W 13.05224089 43.51514011 72.28463718
W 28.00962676 46.62149233 73.36875727
W 44.18482101 6.89576385 56.31657123
W 1.88659917 28.75498656 61.23071739
W 16.13591373 34.99101573 68.99382875
W 40.95896732 2.61439440 57.99900374
W 40.44095658 45.65339338 75.47151477
W 39.35372812 22.95772604 71.57201819
W 38.09065877 17.05350186 97.66811643
W 18.71969213 48.65406934 89.89254001
W 16.70339006 34.96196769 96.73143948
W 9.79475957 0.30050467 79.11818629
W 45.05279392 5.79748076 73.46555604
W 23.59290471 47.75271544 54.76142682
W 11.61310949 47.22495873 74.96847212
W 38.26705988 7.73084197 75.56406708
W 46.74766111 44.30893405 80.83235659
W 44.82239544 36.07423050 97.89137695
W 7.91570184 15.01811976 62.75492133
W 38.55459380 46.30116837 97.52881611
W 6.45116011 20.23641544 62.87130705
W 6.29566038 43.36414185 83.63849293
W 1.57335118 45.74651931 59.62171073
W 15.68122132 24.29808330 85.34911551
W 46.60744960 41.51612805 96.41821662
W 27.64532591 27.94661021 93.31105218
W 10.92520022 31.25403958 92.82615163
W 23.01505568 7.15286473 82.68761364
W 9.95637027 42.72449957 81.96679903
W 21.32853179 33.50284951 71.88934161
W 0.58432890 31.46147679 0.49321798
W 2.07680735 33.39677034 2.31423537
W 0.57404040 31.43059670 3.76126724
W 2.17144876 32.82063862 5.52884686
W 0.48927436 31.48885878 7.33441564
W 2.19302093 33.09491200 8.98369697
W 0.74839477 31.90082696 10.51972780
W 2.42040353 33.45726886 11.91544659
W 0.43858372 31.16155882 13.58485780
W 1.98888912 33.24688261 15.17357999
W 0.45449464 31.31853271 16.50492808
W 2.48244387 33.23812388 18.28515690
W 0.84033172 31.44110879 19.63980277
W 2.34631891 33.38288094 21.46774815
W 0.30003892 31.38049158 22.74628490
W 2.54070201 33.34051465 24.62003967
W 0.71915973 31.57486688 26.04913440
W 2.01990616 33.19273890 27.87426642
W 0.90258633 31.17164868 29.60405538
W 2.24613273 33.60344945 30.84030622
W 0.81607862 32.05742094 32.52862529
W 2.66837111 33.10828177 34.21400621
W 0.86238693 31.77311971 35.94493326
W 2.33415723 33.20722040 37.36289432
W 0.93045775 31.79019408 39.13337683
W 2.31646539 33.54776469 40.58064557
W 0.80650751 31.80461289 42.26882887
W 2.49060701 33.30520915 43.82822243
W 0.84757288 31.49867934 44.98084951
W 2.53559161 33.50027505 47.15072128
W 43.13556693 6.49162235 68.41691036
W 9.45630370 36.36503916 83.95030982
W 45.34997412 42.82771144 50.10664030
W 17.32903937 41.09711642 51.50141321
W 40.12973534 34.71549293 48.95882763
W 13.48434319 4.53519465 59.49024485
W 37.61285295 39.21723305 73.08266855
W 47.75239514 23.37249624 88.56122412
W 38.87408200 43.04507605 56.78853181
W 42.04242422 36.29542328 58.92406250
W 40.43206175 2.33149579 52.48389895
W 19.79700740 1.52615730 58.21674522
W 25.68158606 2.86922989 53.57742720
W 33.43278741 44.31330347 48.35009718
W 28.04987522 33.16318747 94.89415660
W 23.77054636 47.66491846 49.28485860
W 23.57343429 48.69928763 92.64620400
W 34.56644516 1.44002076 88.26537190
W 22.20686661 10.52054673 69.62237560
W 39.38732503 4.98347514 63.24477509
W 36.45872894 48.65940772 64.03233160
W 21.71774893 24.75075792 82.93025329
W 7.45903854 47.67118486 86.75887539
W 40.48030328 40.63814502 71.27079489
W 24.31482500 41.94262678 72.74530116
W 47.49187969 16.90179587 74.10997228
W 7.10828888 43.61023457 61.79406649
W 23.15698080 13.42780067 54.95818348
W 34.81639220 4.97810322 60.01964935
W 32.70526772 3.70125836 50.71993609
W 2.34683475 39.64509720 2.28565046
W 2.08673634 36.73768287 2.16468553
W 0.62690051 34.89995552 3.94346389
W 2.34997159 36.47416453 5.56051227
W 0.67046481 34.99216035 7.25432388
W 2.62215955 36.34908065 8.88081549
W 0.58566894 34.72399441 10.29626337
W 2.20266770 36.54972263 11.84800704
W 0.76626559 34.73387201 13.26542103
W 2.55358213 36.50814240 15.17495835
W 0.62079303 34.76374470 16.63021783
W 2.19641257 36.29902992 17.99943079
W 0.76423780 34.77347910 19.81355154
W 2.45616968 36.50753405 21.07500036
W 0.88742506 35.06980111 22.99328317
W 2.03418894 36.43325038 24.54920444
W 0.67907034 34.47990713 26.25615001
W 2.35736772 36.90772791 27.93993377
W 0.64157881 35.18281413 29.30564495
W 2.32722323 36.48776776 30.95688922
W 0.31245794 34.95556629 32.50510946
W 2.18181471 36.71571715 34.13615339
W 0.88065443 34.79882572 35.76866909
W 2.15298951 36.44811369 37.29820347
W 0.41616785 34.83982393 38.77501110
W 2.60466058 36.61293050 40.26868013
W 0.63786306 35.14821416 42.18306616
W 2.53206228 36.34115077 43.68800076
W 0.92148839 34.60658603 44.97016036
W 2.14534285 36.35488252 47.01041449
W 1.89290602 33.93371989 53.55949424
W 27.37277798 49.02270608 63.94013810
W 12.17459073 2.68368478 70.30062161
W 43.67962131 41.04776627 49.12958137
W 22.00068254 46.21510195 83.76275056
W 10.90667008 24.83721156 48.69098432
W 47.04577719 29.64788077 71.71790728
W 33.53637571 15.20596580 66.83979452
W 49.22099870 15.27276061 62.98759971
W 6.00318646 40.32611794 92.08210785
W 25.41103131 19.68883707 88.70166206
W 25.06979059 43.02502627 94.35479677
W 1.26357522 36.15351351 55.86877085
W 2.73733009 31.12190661 78.80291395
W 21.39407151 3.02264601 91.16493037
W 45.00710943 47.25376140 78.99453193
W 14.48284692 6.23106082 94.45868539
W 22.32842510 8.29163481 85.01405121
W 3.30930466 40.58285678 92.62397709
W 41.95198736 4.14256896 47.31212482
W 48.54834400 0.49458404 98.06353822
W 34.82948980 28.13713503 74.83205473
W 6.70732389 11.41760044 75.20133455
W 13.54900413 47.78150012 96.48153965
W 25.28337560 16.49844890 76.33328959
W 27.40801156 5.47098415 93.12667615
W 20.15316721 33.63218952 93.08935402
W 44.39058226 22.25123566 59.96735771
W 25.04070054 27.05355073 53.88875296
W 7.71808520 2.80327386 93.69312425
W 48.32387863 39.84718688 98.03830529
W 3.89534735 41.44242202 0.54325081
W 0.49102813 38.12299210 3.49769619
W 1.84627549 39.66474097 5.21081890
W 0.64000803 37.71891528 6.99704549
W 1.98079435 39.67734998 8.39676711
W 0.63368226 38.01695364 9.97643701
W 2.61527221 39.81833838 11.80418564
W 0.50907900 38.13841568 13.57916135
W 2.50896873 39.86515233 14.68720588
W 0.65507159 38.10352375 16.69702500
W 2.41707229 39.57430175 18.08281308
W 0.54960443 38.01106539 19.94263415
W 2.38736904 39.66945526 21.63514127
W 0.78677861 38.29118725 23.50616368
W 2.09287633 39.80776938 25.06300148
W 0.73008132 37.86874294 26.54004663
W 2.18273008 40.12753697 27.83391881
W 0.72055359 38.39835787 29.54677416
W 2.00882324 39.76842742 31.10990011
W 0.36226071 38.25225604 32.57846620
W 2.28437710 39.87782092 34.23703251
W 0.58388000 38.25379370 35.79158028
W 2.31596603 39.98384441 37.29993684
W 0.52321771 38.16779177 38.67771709
W 2.13289370 39.63310567 40.32080425
W 0.38491842 38.06796932 42.44303849
W 2.21206190 40.15461036 43.59075669
W 0.86803057 37.97590172 45.35979905
W 2.70342452 39.79888984 46.81066119
W 34.63131131 10.40639368 57.30112124
W 23.51535925 11.77089846 93.07097560
W 8.82921091 43.32614250 98.32955631
W 48.99346622 32.86380749 46.80080883
W 6.85510513 37.61565392 70.68611851
W 4.66966765 7.54239570 57.57384244
W 7.45616394 40.16700874 66.40868681
W 38.25193136 10.76176163 73.78111488
W 43.01827730 2.55494740 92.84035507
W 7.91408196 38.81038817 85.22120511
W 18.21008251 37.78754835 92.23528188
W 31.72032034 16.83496167 53.73465762
W 13.53544944 34.89130921 81.40565935
W 47.57943464 31.58091785 73.71220526
W 49.06116100 0.14859206 88.51924630
W 23.30440532 1.86814047 48.66677226
W 40.46709877 6.53997879 69.02728809
W 31.58727131 10.43705766 98.03494389
W 48.02823977 47.03631309 71.22643176
W 2.05706940 23.93757380 80.18005948
W 37.54654060 5.33404019 55.27387000
W 17.97895550 33.14167264 98.24113070
W 30.22698062 15.26249366 82.16331977
W 31.40699029 48.49161314 80.68011268
W 7.00543672 45.51245900 91.39268677
W 39.17613919 45.16900098 72.17782786
W 16.31258241 10.19438242 98.72859894
W 0.33326877 32.92233464 74.32432637
W 44.74896161 36.35707437 94.93464719
W 48.65503223 21.40090524 73.57107105
W 49.29655929 41.83935691 96.03825062
W 2.09076906 43.15095128 2.16989899
W 0.62534949 41.37189231 3.59489154
W 2.28748156 42.68156794 5.23166889
W 0.46288455 41.47498269 6.79278462
W 2.27927024 43.05165790 8.71085759
W 0.69955104 41.43735242 10.36633747
W 2.48459464 42.98779183 11.87249068
W 0.82886681 41.49656388 13.38783338
W 2.41311119 43.10028402 14.77380891
W 0.82055764 41.30342666 16.51109825
W 2.47279721 42.96136234 18.19706917
W 0.85777930 41.63300707 19.66502329
W 2.28834275 43.41404304 21.30337263
W 0.96211243 41.57781957 23.12852630
W 2.33909286 43.13805551 24.45580238
W 0.61313101 42.24364055 26.42745971
W 2.54288411 43.47862766 28.04999761
W 0.39490858 41.81444951 29.41730633
W 2.21958094 43.22306229 31.11005437
W 0.91689402 41.39454016 32.66879239
W 2.32516031 43.45040246 34.21892612
W 0.77180120 41.55950364 35.94130102
W 2.53142767 43.08387943 37.33252881
W 0.60271525 41.34686189 39.13293523
W 2.03241474 43.18473844 40.41821964
W 0.73028672 41.52149949 42.21642873
W 2.51306787 43.16259218 43.67692184
W 0.91046040 41.56552327 45.47265401
W 2.60512127 43.11101009 46.96453408
W 46.90483638 45.18181624 48.66920298
W 22.97696804 26.74282710 64.20026878
W 18.24296729 12.58630118 59.87181214
W 12.73692187 18.86913096 61.27793324
W 36.23845709 28.01053338 63.22527259
W 25.99823064 23.52046583 56.13091214
W 31.81408396 33.41596797 50.49855581
W 4.22430389 44.67909738 58.48320612
W 32.81739047 9.70258512 76.69278314
W 32.02077007 22.56163226 90.35164034
W 13.41783986 11.33182395 64.27032508
W 48.13856359 8.22221984 73.33603525
W 8.08558098 26.79372554 57.78039108
W 40.51492348 26.89756911 92.05502434
W 11.98390233 0.39774236 47.05356807
W 43.87955883 9.59412958 57.23275775
W 26.15855462 1.04261599 82.52041942
W 23.81001026 18.04655643 96.25325255
W 19.10698545 0.56175424 85.43401684
W 18.87412913 3.34650748 98.02886397
W 10.35405456 15.16421948 48.80921387
W 27.60765506 2.17330976 96.32979104
W 22.94809025 16.84572618 91.59916690
W 33.61202147 28.76095287 58.46060604
W 31.84242606 20.97749563 64.51584205
W 37.20348481 2.13927299 52.05001457
W 46.02423762 37.09752729 73.23510547
W 3.80617910 12.08010126 78.35153677
W 18.71283066 31.83618942 91.97770413
W 2.30943289 42.93068433 97.72765316
W 48.43585954 46.53474525 2.09697284
W 2.09040185 46.32620438 2.23217866
W 0.57299045 44.81361033 3.74152287
W 2.00965333 46.26922372 5.46115858
W 0.52096607 44.20683604 7.03975736
W 2.20730055 46.27343199 8.27155544
W 0.84502002 44.75544273 10.05132192
W 2.73180391 46.79060890 11.61058451
W 0.67700970 44.55647705 13.27968133
W 2.18971042 46.35689913 14.69872382
W 0.80751738 44.69576262 16.61780179
W 2.26630769 46.26753119 18.12151675
W 0.72232057 44.51391355 19.48259825
W 2.67662318 46.54620318 21.61627662
W 0.81448062 44.70846519 23.14791533
W 2.37450201 46.69067520 24.78603212