13500
Time=99999.99999996 pbc="T T T" Lattice="49.34053946 0.00000000 0.00000000 0.00000000 49.34053946 0.00000000 0.00000000 0.00000000 98.68107892" energy=-102149.76794767 virial="-4608.66394630 66.42259492 29.56761998 66.42259492 -4835.16314444 -146.63402310 29.56761998 -146.63402310 -3220.10836885" stress="-0.00204145 0.00027649 0.00012308 0.00027649 -0.00298426 -0.00061037 0.00012308 -0.00061037 0.00373844" Properties=species:S:1:pos:R:3
W 49.09889513 0.45565829 1.02542910
W 1.14884844 2.34708142 2.30589540
W 48.96040021 0.34680032 3.92076625
W 1.41299377 2.03676698 5.57356421
W 48.96351892 0.17873970 7.05644983
W 1.48291816 1.91299697 8.72628830
W 0.08103458 0.20510881 9.88538804
W 1.42288468 1.77337640 11.60054375
W 48.84632739 0.32748959 13.29793312
W 1.21174169 2.01000224 14.64900208
W 49.11735669 0.38519562 16.31694696
W 1.32266416 2.10603520 18.05493321
W 49.01689126 0.21419074 19.69969106
W 1.05026602 1.96535272 21.07852925
W 49.46109893 49.36735933 23.21544724
W 1.37842539 1.73880778 24.73635872
W 49.25518025 0.37376988 26.48847867
W 1.41358720 1.89550569 27.94813409
W 49.20777201 0.21440179 29.34976894
W 1.41379438 1.87338881 30.95586013
W 49.06633206 0.37285476 32.75076978
W 1.54335265 1.68604398 34.52974941
W 49.20224105 49.25383088 35.84582393
W 1.49873495 1.89950124 37.49424688
W 48.98054226 0.24918367 39.17441264
W 1.58298670 1.62360107 40.62726494
W 49.15940464 0.26899416 42.53735382
W 1.14844796 2.18709458 44.09117212
W 0.59408773 49.21271422 45.54012393
W 1.80100257 1.46720882 47.33409901
W 49.31958897 49.02017863 48.61335978
W 27.63559586 6.36237271 60.51713975
W 24.57132435 5.21303567 53.96315365
W 0.09884920 43.01274667 85.71990578
W 20.44845325 22.61241435 82.86829029
W 6.06140963 7.54452960 51.94357394
W 43.66641475 42.81206129 75.68393700
W 30.12394879 4.64824884 76.87573020
W 12.59615576 6.15004669 76.60249092
W 27.15719395 12.88937650 70.66924487
W 29.33014620 19.71972608 70.39791514
W 21.91072216 45.00337635 82.86033991
W 24.04106516 11.79610547 97.56629352
W 24.02891384 15.40027992 94.20019968
W 46.05572472 19.63052798 95.48778014
W 18.90021223 36.29304369 64.14106771
W 41.13976006 43.88494282 76.08891231
W 36.00674154 5.44088442 78.33421346
W 25.83997616 33.19448319 51.78376925
W 31.99584542 46.73191894 86.66133306
W 22.97684952 44.16553503 84.83675889
W 46.55384744 43.02088187 82.64380913
W 44.74402793 41.37723239 65.67330440
W 14.99685619 41.11304769 91.21761540
W 21.80515863 31.48985943 97.64688676
W 18.38990260 48.62101244 85.51701229
W 34.39369704 4.37115520 75.79979394
W 12.27195883 9.98981617 95.78838963
W 48.07851328 48.81134073 74.78734429
W 2.89531607 3.56383826 96.13547023
W 48.60057152 3.91011558 0.42674782
W 1.23624166 5.27654351 2.44311017
W 48.96784326 3.82171190 4.19276604
W 1.10115896 5.30022303 5.62299831
W 49.14756724 3.58241347 7.15315496
W 1.42360363 5.37495124 8.59651355
W 49.06479631 3.47483321 9.68638248
W 1.40003640 5.23294299 11.59468102
W 49.04178982 3.40975830 13.09806043
W 1.50774451 5.42772760 14.92494153
W 48.88390296 3.75341231 16.34418987
W 1.11335139 5.24407905 18.29015714
W 48.99263191 3.47640084 19.66139873
W 1.11456314 5.24789197 21.11471318
W 48.86002023 3.52003808 22.80052702
W 1.32426470 5.16438157 24.57507001
W 48.97267733 3.28026310 26.33663991
W 1.40609036 4.97989180 27.93720718
W 49.21344786 3.37765415 29.27431504
W 1.08721319 5.19678339 31.09487648
W 49.22982349 3.68718025 32.74188371
W 1.46962641 5.34136796 34.30351296
W 49.34993136 3.61938299 35.78797010
W 1.23435896 5.18810213 37.72308561
W 0.05557265 3.15461594 39.20538987
W 1.79872903 4.85811551 40.82378588
W 49.25204915 3.39022267 42.02451395
W 1.47106082 4.92703580 43.87317725
W 0.03823611 3.40324995 45.90720818
W 1.47632975 4.97528782 47.84306188
W 42.36975974 35.01724430 81.30095348
W 48.96351540 35.99703329 55.20882244
W 49.03896735 9.06839595 59.71338607
W 16.01971828 39.24892105 52.39322538
W 3.71097722 30.60287890 84.22246720
W 46.34286422 0.17482537 48.77184394
W 34.87364745 28.98965689 59.54978882
W 34.57446883 27.93133606 87.56255151
W 15.22924208 5.07622967 63.60175348
W 0.03058784 33.02348795 51.90705816
W 30.60280714 10.51448345 77.81307919
W 11.14120049 41.34762581 66.26202024
W 13.92196180 14.18860621 68.45558540
W 28.74631522 45.41525691 54.34327291
W 9.05210629 3.46762974 52.05586126
W 9.48529356 2.04547984 59.44631064
W 33.78655034 0.70560214 70.91597549
W 36.51410434 33.33931771 93.28674566
W 13.17653863 2.13741727 74.63063583
W 30.67486658 47.95795024 50.68200644
W 6.41880803 16.83454492 55.47978348
W 29.08566657 32.96296210 48.56360215
W 12.28018792 31.87621804 90.67520419
W 36.07490849 24.40313042 73.16280925
W 27.81558188 17.01622183 58.12052290
W 5.80647085 28.21144123 69.29574296
W 5.81141297 29.47761325 61.02029802
W 39.43323603 42.60200165 89.26874449
W 13.35738255 10.88740613 84.53990367
W 47.34164354 5.42218290 93.93287245
W 48.99792446 6.84130346 0.41511757
W 1.35271075 8.34373274 1.92787702
W 49.06422089 6.50082528 3.89568283
W 1.51516343 8.24388786 5.37984401
W 48.86760234 7.11858095 7.07819746
W 1.41967862 8.74480154 8.55873185
W 49.04386885 7.05995974 10.26806750
W 1.62211564 8.46404866 11.86850744
W 48.96153606 7.39863892 13.17899242
W 1.67356802 8.37818053 14.92363518
W 49.00859685 7.28657727 16.56581845
W 1.47979346 8.89736771 18.13399879
W 49.21899570 7.06441192 19.48828980
W 1.37880649 8.36648865 21.24245968
W 49.27175024 6.99265358 23.02113119
W 1.50935883 8.55796806 24.46851731
W 49.07369986 6.47278837 26.18600133
W 1.59209509 8.16284840 27.67381591
W 49.06780036 6.80650528 29.43222303
W 1.00262876 8.62597827 31.07628856
W 49.05954740 7.02380544 32.87269100
W 1.55046176 8.62956766 34.39444710
W 49.22231252 6.64664196 36.21829409
W 1.45752416 8.76244109 37.43347028
W 49.21429439 6.60261877 39.24279543
W 1.55419977 8.38188584 40.63543856
W 0.07005313 6.95358643 42.26472829
W 1.20969166 8.40578881 43.88560993
W 49.25765716 6.68386185 45.58361918
W 48.84169910 10.40272373 45.24841644
W 33.11115817 5.00837851 59.07263906
W 18.01026863 44.01559806 49.79609610
W 29.04943321 39.95384943 52.02383234
W 0.84636408 15.39417169 59.78721646
W 17.97195179 40.19252281 53.89163560
W 11.16504104 18.09960272 50.34405005
W 19.22641570 20.26702176 65.49497378
W 15.00354980 0.40061791 58.61183014
W 20.79806158 31.36269013 53.57378020
W 1.31824776 31.44137583 71.58611635
W 27.72925126 5.64456845 72.80853518
W 21.50331988 25.20828346 87.72685877
W 47.44806672 40.41705603 74.71720249
W 24.34821344 34.85329889 94.56412507
W 45.92211888 6.96650529 92.21465460
W 39.96250555 19.81667922 77.84339449
W 21.31841055 35.55806139 53.06777667
W 36.16531074 47.28867430 78.54245553
W 2.83906995 10.33367714 48.53615882
W 24.88442201 39.10554894 57.00715066
W 25.83448554 43.76586913 63.99411074
W 29.73989914 27.32904863 89.89909221
W 37.72982663 41.39503204 97.73060731
W 41.35040963 4.87348927 84.35090858
W 14.66826929 11.29078318 87.36610238
W 4.96507048 43.04694300 75.05560073
W 33.99498557 1.59249215 90.91204644
W 10.96622021 44.73056492 50.29773377
W 42.21367469 16.34746506 96.22742034
W 6.25666292 25.84529478 86.95981212
W 48.88283654 9.89950884 1.00593383
W 1.23997094 11.96294839 2.40790118
W 49.35604207 10.10000577 3.56414504
W 1.39605416 11.96788317 5.50427816
W 49.03809766 10.25840264 6.70053194
W 1.44057416 11.82543254 8.60437788
W 48.63867897 10.18246468 10.09568293
W 1.30399249 11.56150129 11.54581132
W 48.86737391 10.23127784 13.00534156
W 1.46919766 11.61627578 14.76740135
W 48.92502088 9.94943491 16.48265103
W 1.34242233 11.58692823 18.11209336
W 49.13194296 9.79512459 19.70808288
W 1.12513532 11.49679664 21.15917585
W 48.88200572 9.79131521 22.84340488
W 0.97213786 11.91312930 24.42564222
W 49.35121964 10.05350229 26.15856872
W 1.10876587 12.28171795 27.72463969
W 49.05073668 10.15028888 29.41721252
W 1.01842253 11.82894668 30.72466891
W 49.20787894 10.09824945 33.09535082
W 1.44974864 11.71431268 34.07764749
W 49.17462945 10.14221123 36.18513664
W 1.19303257 11.79681968 37.60855175
W 49.12583371 10.03616410 39.22061295
W 1.59218773 11.75581357 40.25049746
W 49.33791263 10.17867445 42.19878584
W 1.52595780 11.58013691 43.94698884
W 47.39743330 11.53092737 47.24843392
W 1.43636141 11.84117340 46.65281128
W 33.27978410 14.82526424 79.90474896
W 4.77679019 15.39354465 46.94949188
W 42.97971789 25.13962064 74.99224987
W 14.74950289 7.86957204 53.79100608
W 4.89973465 5.36256512 94.58759246
W 32.24594305 3.08276839 74.95154864
W 20.16416175 24.03354600 85.62410997
W 14.22666679 24.45369080 95.01708319
W 23.23217968 36.24303292 77.67515721
W 48.71166703 36.86284974 58.50233888
W 33.40130989 49.28606362 88.05847177
W 1.73630248 18.38051050 94.14574191
W 21.28050801 39.27283520 83.46664245
W 32.44672517 17.10750710 89.45269951
W 28.86478657 32.99272805 84.74267673
W 43.49079468 8.68492748 91.38272215
W 45.42448550 45.85401528 55.19870790
W 2.04929008 40.80611375 54.05133402
W 11.17683213 15.53793771 54.11759939
W 49.28119806 44.63620407 81.11019616
W 40.85962031 47.92911304 67.55460538
W 21.64066329 37.83693288 79.07271242
W 36.96042924 38.45667695 69.19621513
W 9.47591759 13.76254721 52.00360667
W 44.26981601 41.51347650 91.25459830
W 30.62781812 44.50366526 88.18375493
W 46.90679945 38.35847645 94.59062099
W 7.27353060 24.32048084 59.82481938
W 29.40704739 33.96623976 55.28033972
W 19.32569300 38.72284237 66.31775487
W 49.11977702 13.26757061 0.72565530
W 1.01598555 15.10083505 2.28490258
W 48.90675817 13.53079148 3.63781864
W 0.88157866 15.17460334 5.35856770
W 49.02846510 13.19360984 6.96260090
W 1.17870209 15.17985661 8.44549574
W 49.05676076 13.54862333 10.00224781
W 1.13898582 14.97252729 11.59782130
W 48.80468575 13.43897544 12.99324145
W 0.93133066 14.60694132 14.99800966
W 48.79845022 13.00765937 16.36660713
W 1.56019065 15.16926675 17.92293616
W 48.80795055 12.84788988 19.25090562
W 1.40549143 14.95484547 21.00705648
W 48.92241458 13.33185657 22.36626908
W 1.43152599 15.20724533 24.34162156
W 48.99539346 13.29836473 26.12731841
W 1.14430924 14.98302727 27.30119142
W 48.66928284 13.35498078 29.21483738
W 1.03522784 15.14764684 30.85491756
W 49.14832562 13.23090510 32.78368527
W 1.18742280 15.25436721 34.06549139
W 0.03547290 13.32012208 35.65650789
W 1.40822432 15.25251167 36.85506005
W 49.25003006 13.55972016 39.03366385
W 1.46120448 15.19278059 40.62577086
W 0.00967791 13.32620728 42.11112705
W 1.28827516 15.20135343 43.73175274
W 49.27591636 13.45309291 45.15196451
W 1.43900791 15.24926120 47.18221300
W 2.60713301 10.51451894 52.27143905
W 40.95501535 28.62927380 91.28202854
W 10.86380572 33.18602710 72.55060396
W 18.84113842 28.41996148 88.34135128
W 20.79912190 41.92259313 75.67615781
W 23.93027551 11.93215565 91.25324096
W 40.82489426 28.88772931 66.87256081
W 0.84046759 30.56175310 74.33484061
W 30.64883212 40.96482291 72.56812847
W 3.55762087 18.44424746 84.59944216
W 26.52721972 16.69933958 66.93724525
W 1.26721908 41.31409847 94.77151761
W 7.90593989 8.67744746 94.10344769
W 35.81874018 19.92954497 0.95411636
W 24.72015187 3.89336640 89.76209937
W 15.54890883 26.23533408 62.58645594
W 7.81147966 34.55307062 94.30986076
W 44.75212949 26.66461026 64.29626326
W 7.90267379 26.73015937 85.19894835
W 32.80625208 3.31361867 48.99572978
W 2.13527311 33.51443724 77.95033455
W 36.49313324 39.64941941 96.32511648
W 29.09653229 10.10407753 92.83651348
W 0.13930175 39.21482474 57.54341506
W 3.21038580 20.25712641 70.18242840
W 5.91756618 13.34895711 92.90039022
W 0.42882629 5.18230113 56.58229856
W 3.08203587 20.10373079 72.92887832
W 41.74903520 47.35975391 83.66496331
W 31.86569122 35.76104074 77.39827880
W 49.02416435 16.49326640 0.24191406
W 1.24247466 18.17159990 2.19839503
W 48.81547491 16.76681906 3.86926490
W 1.35517022 18.16588764 5.27286861
W 48.66606613 16.38659741 7.14423282
W 1.22823344 18.18264399 8.50826777
W 48.79408834 16.72454279 10.17338637
W 1.39465718 18.41981678 11.65893443
W 49.10698022 16.55586056 13.33956035
W 1.38176818 18.33190879 14.93686710
W 48.97365525 16.49206101 16.39210734
W 1.45870753 18.75155641 18.13602550
W 49.21525743 16.79909590 19.52899135
W 1.67144215 18.38787630 21.25459542
W 49.15356588 16.67156621 22.84276691
W 1.53849052 18.41840412 24.48027362
W 48.92899523 16.77413415 26.16102629
W 1.60988684 18.31514748 27.66791802
W 48.97346444 16.63822406 29.24427739
W 1.18049221 17.90402111 31.12996102
W 48.69940855 16.75525260 32.41197397
W 0.84185982 17.92003647 34.21360659
W 48.39048753 16.72929685 35.79540411
W 1.34762405 18.44612315 37.04395106
W 49.32359775 16.61362541 38.56824886
W 1.56907733 18.30371584 40.13416483
W 49.27764483 16.52126411 42.08767565
W 1.26508094 18.12487666 43.52047560
W 0.18035802 16.93996785 45.40354833
W 1.56638615 18.21302732 46.74745534
W 34.71016018 10.81082780 73.22207973
W 1.27596216 15.22385419 50.53753349
W 35.63916589 9.92323156 96.10316248
W 12.16142794 46.40637748 61.73624538
W 33.62266324 16.97132688 63.81456277
W 11.76178405 2.17149187 60.96817838
W 15.75777053 15.08672180 61.86647337
W 32.46073362 4.99483220 65.43051123
W 48.50045741 43.89913751 70.42318006
W 3.12071041 25.02473353 82.72264090
W 40.39181314 38.03929469 73.27267095
W 9.82676911 45.86440041 82.76120458
W 4.63860174 11.77577886 94.74097254
W 32.39652539 11.08252306 71.76172120
W 47.54308305 31.43158921 94.79057254
W 15.63093438 16.42094637 92.29610043
W 42.58885911 26.92097004 62.23027854
W 15.85755398 3.72952616 55.02487868
W 4.68288293 37.90514754 50.46087032
W 43.99208468 14.85567316 81.17722781
W 47.15348456 15.00301291 81.17871601
W 9.66021943 33.25519878 95.81321019
W 25.65124399 4.73431009 81.99800666
W 15.67182432 43.01265337 51.48034769
W 18.55111129 6.87921670 76.13196066
W 23.79347267 15.90575720 57.72284452
W 31.53326662 24.51555781 60.77052106
W 6.46206497 26.55020448 0.08582626
W 6.41631959 39.69786156 92.67465128
W 14.76352166 45.19025745 53.82546281
W -0.04614826 19.46128952 0.62210228
W 1.27792349 21.65209026 2.03549374
W 49.13049861 19.73872122 3.76902559
W 1.21947648 21.54034380 5.45461157
W 49.16356228 19.89264520 7.11416713
W 1.26429266 21.95634482 8.62484706
W 49.03023840 20.30412227 10.10561693
W 1.69189594 21.17999335 12.04857826
W 49.12625048 19.74896822 13.16690534
W 1.45688285 21.45859187 15.08817138
W 49.09657608 19.83383467 16.35875460
W 1.10183689 21.85166295 18.30666540
W 49.18636872 19.63985230 19.69125980
W 0.95539585 21.49315714 21.62312425
W 48.74291500 19.66654068 22.63502377
W 1.06429690 21.52622666 24.28420143
W 48.91891162 19.62076193 26.16318224
W 1.40390470 21.52390814 27.74455913
W 49.08780832 19.73028539 29.33643347
W 1.17213309 21.44481443 31.15558890
W 48.39283663 19.95111676 32.61892704
W 1.65449591 21.41583155 33.86649109
W 48.80018778 19.83663950 36.02943595
W 1.55185221 21.38989651 37.31853975
W 49.28824125 19.97196807 38.93571310
W 1.48144314 21.31153736 40.58944367
W 48.87615153 19.63433537 41.93578493
W 1.20947425 21.69756511 43.65227150
W 49.07994391 19.64334545 45.42851613
W 1.23315106 21.36504548 46.59973905
W 40.92636013 20.11625203 82.95424441
W 1.61483715 21.96799713 50.42138830
W 46.46276121 12.55644726 59.46274420
W 12.38453418 13.14556721 58.30742988
W 14.53695982 21.42805185 91.27100669
W 35.66462581 46.42275918 57.98278916
W 6.37246023 29.53222490 48.42942263
W 1.18599894 24.76323035 80.78109771
W 32.53822383 23.16718520 0.85408061
W 36.12724575 17.69226067 75.80876003
W 25.98788866 6.68850849 51.88809286
W 10.05722797 17.85872210 66.76666618
W 19.50470728 41.87452860 72.75406632
W 14.55233481 32.22051642 89.45130513
W 38.98218722 30.08723243 48.81633844
W 24.52001328 31.86069118 63.28748562
W 48.18533461 6.97775682 61.91643540
W 48.31269224 31.96444519 81.83540412
W 19.41508017 23.65521775 76.97947131
W 9.78994334 20.10008425 92.63917629
W 23.86434709 25.06601659 75.34526252
W 6.47513694 26.78535160 95.73692067
W 2.88200814 41.08224126 75.34438367
W 37.16870034 4.81369466 61.31452601
W 37.68351419 40.93542839 53.00647358
W 5.33793500 48.12045309 53.51546798
W 8.59445298 38.69693710 81.25786354
W 18.78102851 21.72184420 86.57317669
W 40.49943950 20.52436523 57.70785514
W 1.29370752 21.90083290 97.31709954
W 47.47109582 24.91666828 97.39059527
W 1.57912354 25.06030225 1.89553235
W 49.09360539 22.99014632 3.69519173
W 1.50395493 25.15273323 5.55425573
W 49.32947074 23.49539605 7.16291997
W 1.78207664 25.41666534 8.79140576
W 0.13038518 23.62838355 10.15473426
W 1.58462393 24.77616147 12.08160798
W 49.11613833 23.63981720 13.37828765
W 1.73220138 24.61421496 15.04372047
W 49.12418364 23.01499593 16.50515131
W 1.79007792 24.79930854 18.32990403
W 49.12236849 23.44472819 20.19542731
W 1.40219293 25.04199773 21.47877357
W 48.64410834 22.59460418 23.03329709
W 1.52647567 24.70313481 24.44055989
W 49.24447438 23.48063262 26.11321403
W 1.79539398 24.31206817 27.77086268
W 49.11405780 22.88356070 29.75164036
W 1.02138795 24.90403248 30.73377521
W 48.85962856 23.23499195 32.57884337
W 1.09580968 24.71992368 34.08834151
W 49.12595113 23.02566739 35.63811213
W 1.37618511 24.57457037 37.23697197
W 49.25889368 23.03559911 38.90452762
W 1.46144577 24.88915365 40.59328174
W 49.19165887 22.96607881 42.03901530
W 1.73513948 24.64078948 43.62453853
W 49.04753420 23.10347868 45.46132834
W 1.45466444 24.53501798 47.00508690
W 28.98671859 18.35696666 76.15170968
W 14.06019743 27.74598060 53.28469401
W 44.40090802 14.63206490 59.97027163
W 34.22604303 16.67262869 54.06250222
W 21.73475168 39.18132342 66.57995073
W 0.07525889 36.37925846 48.45100857
W 16.03600799 42.48191263 86.52311035
W 31.64426345 47.33824735 80.71603938
W 2.84167301 0.04021339 96.32480569
W 3.45556668 7.31009378 48.51339923
W 20.81198989 34.55338446 91.65847347
W 0.28097809 33.16029012 89.03988542
W 18.49187490 28.43779567 81.14496053
W 31.74976587 35.43535227 90.72884702
W 20.10753711 25.15548506 65.22516616
W 12.47902762 6.83573316 88.42470912
W 4.58292295 15.04018055 97.79180382
W 6.32958176 16.84060469 48.45033529
W 27.47880870 37.92199969 90.71739885
W 28.89968074 6.93310400 91.95177449
W 1.80498295 37.16500834 85.51360179
W 40.84851480 16.98455570 58.53370103
W 20.29341496 26.47978502 54.33669807
W 6.90879823 13.62010304 82.87085233
W 39.18885893 13.34163173 89.45344925
W 23.08990457 36.17487408 92.37579479
W 26.36045667 33.66984141 80.88968183
W 4.05315417 24.22291353 60.90682623
W 33.94725100 28.52745604 69.46744010
W 41.22465560 46.95877811 62.19071938
W 49.34140559 26.47128377 0.26823542
W 1.65783142 28.44561563 2.03270174
W 49.19623905 26.58410857 3.77140098
W 1.59803698 28.11709046 5.59432223
W 49.22126105 26.88108852 7.04614757
W 1.60636784 28.12981713 8.77737729
W 49.06603740 26.50851944 10.45105055
W 1.41887774 28.12193582 11.81386257
W 0.29459147 26.47217919 13.59246630
W 1.47251444 28.13915853 15.30595917
W 49.33062886 26.23688891 16.60063961
W 1.07145303 27.89052949 18.29855935
W 48.91887532 26.35451677 19.62359825
W 1.65745100 28.20944893 21.65433470
W 49.23474913 26.65653230 22.55552155
W 1.36203755 27.38515496 24.56696507
W 49.02075903 26.50457537 26.23720526
W 1.42319648 27.75801729 27.88582936
W 49.05968851 26.47402383 29.25051633
W 1.18649244 27.96282646 30.92141605
W 48.80564494 26.47652999 32.11345165
W 1.20215053 27.80986744 34.06375705
W 49.22985094 26.67975724 35.53024502
W 1.73357408 27.86699264 37.45070134
W 49.40921378 26.24097319 38.91965345
W 1.46415135 27.91034355 40.76489962
W 49.14503554 26.20570929 42.04954934
W 1.36562942 27.65870567 43.79226742
W 48.95232212 26.17621667 45.14966192
W 1.79612990 28.01968968 46.97803759
W 44.02678573 34.28862280 53.35462657
W 22.88775642 38.36407744 69.40292875
W 47.89318708 8.59967388 49.76033191
W 12.96946710 20.36087675 52.89080289
W 21.99809316 46.51719488 56.02146322
W 44.53876294 8.93171167 53.02245668
W 5.18921521 36.84452283 83.08998208
W 6.74279950 27.47156160 66.79013907
W 40.36769082 14.58483127 97.53878679
W 11.81102157 42.39789314 71.46860077
W 46.93936396 33.37734749 75.90266658
W 10.82444796 41.22975874 84.82266455
W 48.78260348 5.24778349 71.45076152
W 33.51477838 48.03773441 59.72241326
W 36.76216151 2.41884548 83.65219703
W 34.93569191 36.22223984 79.53479086
W 4.38189999 34.65086772 88.17049440
W 41.11284012 31.82216377 94.26299492
W 2.16375447 25.20758103 59.40927443
W 34.30302596 44.67287782 97.88476773
W 14.94840684 27.40492056 55.65969851
W 18.77073754 36.61564475 73.85692129
W 2.98619050 45.90081316 49.16991504
W 35.78569526 6.52075619 90.08733468
W 5.24315909 40.95972810 87.27606675
W 16.20625840 28.68977498 88.67003580
W 18.38938682 28.24915144 94.33911859
W 35.86536372 10.32005312 65.53956672
W 30.44006988 4.57328000 94.74403774
W 20.82434016 43.75892943 68.10949828
W 1.35013269 31.45217526 2.03379711
W 3.19672542 29.85689326 3.74259626
W 0.00066714 29.73964107 3.71116262
W 1.62949988 31.35356694 5.22994775
W -0.01940718 29.90862765 6.96252146
W 1.84250435 30.92418977 8.48145318
W 49.06488847 29.55932272 10.40954729
W 1.56142396 31.45427668 11.67227059
W 49.09683053 29.54830210 13.40849164
W 1.35476986 31.22837692 14.97238549
W 48.84072391 29.70766613 16.45112007
W 1.26281259 31.04063292 18.15283596
W 48.76351020 29.70649074 19.71264552
W 1.25223663 31.07402648 21.62258300
W 49.16783107 29.60971077 23.04476650
W 1.22150791 31.13369776 24.63123142
W 49.22035125 29.42778862 26.03824930
W 1.42936254 31.41539336 28.24223868
W 49.25582586 29.62186794 29.39998234
W 1.67452779 31.33670024 31.23084945
W 49.17469770 29.81843209 32.46590203
W 1.21102551 31.21821860 34.18070150
W 0.26422017 29.60020232 35.80339689
W 1.56576630 31.13569391 37.60976767
W 49.00118946 29.31114035 38.98793435
W 1.18292713 31.29841361 40.46080049
W 48.92124093 29.33383358 42.01985079
W 1.52031091 30.85986547 43.92804803
W 49.09129963 29.39698816 45.16928405
W 49.26202540 30.02008520 48.87404183
W 1.75498605 12.69359895 64.37604925
W 44.45171886 43.16971856 80.62131155
W 45.45580821 42.99062923 51.78054775
W 19.22787228 36.37883573 55.48402624
W 31.30638348 34.78862504 53.49374544
W 6.15270739 13.38423762 52.07142461
W 35.88453835 9.82312290 92.31287970
W 3.15699252 20.07331203 95.86702468
W 3.73090526 46.17834595 51.99590989
W 21.23253011 8.66707736 65.71246347
W 37.43293004 1.47045796 49.99506001
W 6.06924063 2.98204480 52.08263583
W 19.16419956 48.46450482 56.93066796
W 32.13710128 42.90311117 48.25410471
W 42.23676291 39.89141448 79.21041394
W 23.20375671 42.60621645 54.40832913
W 20.72137819 8.43845351 94.35133657
W 25.46793939 49.02683881 83.02653325
W 16.05429184 41.62732926 67.43897640
W 36.57005852 22.25606308 75.13932583
W 47.99954761 22.36946345 64.35758964
W 21.29695319 24.79927539 93.94106380
W 22.99717733 20.54189646 92.55236701
W 36.14640387 47.56477924 71.16283009
W 30.42167500 4.46540069 88.58302588
W 21.40985452 8.05469118 76.90398875
W 15.64191420 42.35258356 89.35712576
W 33.09004846 26.98549606 52.01079662
W 6.63449872 8.82418690 60.97253788
W 37.63148905 47.39412752 56.84052323
W 48.90333068 33.19288951 0.82703925
W 1.33306072 34.50287931 2.35830330
W 49.03840441 32.97319610 3.81260164
W 1.39553916 34.48125306 5.44285055
W 49.22072948 32.74799938 7.00750553
W 1.63391258 34.59487874 8.96069530
W 49.38185457 32.67216854 10.00359107
W 1.50743183 34.76466648 12.02820873
W 49.37499500 32.58980618 13.23154655
W 1.13742896 34.54655679 15.00191272
W 49.21792266 32.32627395 16.64058948
W 1.19055071 34.43734103 18.16640697
W 49.20005400 32.89112288 20.36708571
W 0.94732713 35.03287592 21.61620383
W 48.43815942 33.08806119 23.32976993
W 1.31929928 34.65737172 24.93495250
W 49.05603331 32.31742274 26.28545784
W 0.99723819 34.52199288 27.88890524
W 48.76004431 33.37245553 29.49966452
W 1.31094140 34.65135784 30.83055379
W 48.96144627 32.80146553 32.56917882
W 1.31279912 34.60864677 34.35545184
W 49.21459004 32.69996186 35.59641580
W 1.18172350 34.54168829 37.48615565
W 48.88413956 32.80214942 39.06023671
W 1.39660207 34.38630219 40.62207154
W 49.19547902 32.84541936 42.16477904
W 1.45600742 34.28025640 43.65528081
W 49.19285263 32.99866135 45.31812303
W 1.54079085 34.38174919 46.78046383
W 44.32455201 31.53099304 49.97994016
W 15.97474032 48.09767375 71.62829775
W 31.26318640 41.65784655 60.57716348
W 42.74910188 39.30787254 48.68671901
W 22.79081729 48.94888914 92.72076259
W 9.84573218 22.72057626 48.41161130
W 17.43074907 48.60661046 69.44524075
W 27.84118311 14.74000564 72.56127227
W 8.78688609 20.18111522 74.39786787
W 3.20133424 33.52210123 65.99980295
W 21.14138464 22.17751566 65.21907526
W 24.05653677 40.89109349 91.63247241
W 48.68941525 39.27457079 54.79287695
W 6.24829024 20.26758327 92.57746406
W 29.05728380 20.12454570 87.10133770
W 17.38709925 38.14073874 80.61272247
W 4.11026765 7.94547124 78.18830420
W 13.89537821 12.12008157 90.12685919
W 6.46229134 39.88239777 96.18500217
W 42.28939815 3.62327374 48.54886415
W 48.70246200 0.24590582 96.04023949
W 46.27689417 45.39176624 60.18303068
W 27.75158091 28.17344107 91.36306114
W 11.29286985 45.04718580 97.77984239
W 20.30925940 33.96594960 88.40143915
W 30.70627945 7.08584091 83.94486808
W 42.38693561 30.54332137 92.74719218
W 13.02999155 29.90090892 63.32108613
W 23.52715577 29.66921527 57.24642764
W 1.60264943 34.67312276 74.18391309
W 49.36273269 36.32221268 0.96843308
W 1.40881904 37.99909605 2.37918863
W 49.18485754 36.24142751 4.22315740
W 1.68530991 37.88004947 5.38855964
W 0.00778663 35.96768089 7.54339342
W 1.37418559 37.93942301 8.67324974
W 48.97038692 36.03846570 10.48520907
W 1.46604673 37.87860539 11.67335126
W 48.72875147 36.30733708 13.27580828
W 1.43579982 38.58364606 15.26089456
W 48.81267732 36.54435913 15.89537297
W 1.15219325 38.09401330 18.40537246
W 48.97521928 36.25713794 19.80089614
W 1.48320959 37.66328678 21.72512282
W 48.68836045 36.20427713 23.17308669
W 1.26410401 37.80621270 24.62419438
W 48.89236633 36.48357314 26.12438183
W 1.30873409 37.48494585 27.95128654
W 49.00620435 36.64630577 29.37173233
W 1.37446597 37.96675393 31.01246703
W 49.27466567 36.06048589 32.49388191
W 1.48995185 38.22146383 34.37107057
W 49.12097984 36.47227584 35.70612491
W 1.45646569 38.05984958 37.51248282
W 48.96393369 35.98199470 39.06008381
W 0.88001027 38.39515075 41.03252355
W 49.14178905 36.26879349 41.77542451
W 1.42178447 37.87663241 43.87791810
W 0.01820405 36.08870449 44.78326757
W 1.48642714 37.98427962 47.01963256
W 16.94418104 47.51832114 55.73327314
W 16.58036958 12.08893790 93.73313583
W 8.02159831 41.31050984 97.78659826
W 45.59557018 33.03967580 48.59542878
W 18.05059231 4.04398892 59.29581629
W 18.17144089 38.25703472 68.89989192
W 0.56104675 39.55985678 60.36592969
W 42.83342454 19.06286926 61.80172280
W 45.86826259 36.49990944 96.17305654
W 40.67586985 42.59225509 86.32814637
W 16.84439175 31.47840142 75.77141848
W 25.21462280 17.34130183 69.26379720
W 0.99537361 3.93883491 65.28747919
W 38.81332369 46.98929086 65.50380684
W 4.19790356 4.57242847 87.34689548
W 23.15856861 49.27594205 48.72629087
W 39.52072418 2.77316320 83.82362075
W 30.35741295 7.80560830 93.73786659
W 20.40900483 40.61171750 51.23867853
W 15.54858378 46.46517341 83.55523044
W 35.87366129 17.38649150 55.84888624
W 23.03380504 26.91598312 92.77803457
W 7.02964654 0.55890344 68.62469955
W 35.55928853 2.74953572 69.16514367
W 8.00436929 25.00013542 94.07860540
W 24.54917829 2.42997974 63.24890034
W 17.76977772 8.57009279 97.18481733
W 44.34088421 26.83825877 70.23423486
W 49.19177938 36.48416224 96.11092005
W 9.36175896 32.98405267 80.20264290
W 49.17440451 39.44267843 0.86077854
W 1.93399633 41.09743030 2.53776125
W 48.79747852 39.40831865 3.85903218
W 1.38630361 41.28109755 5.29252119
W 49.29644397 39.36232832 6.75521154
W 1.46530156 41.10060903 8.39312323
W 49.07812442 39.56224573 10.00968403
W 1.50724600 41.36115058 11.39907761
W 49.00912508 39.78552828 13.13235439
W 1.63491682 41.35601783 15.25335654
W 48.92772673 39.71937655 17.29650076
W 1.39436052 41.24978278 18.25741668
W 49.15154325 39.14344920 20.42652628
W 1.20525155 41.00302460 21.58440812
W 49.08126805 39.41039205 23.46874695
W 1.52162922 40.89908794 24.50525710
W 49.07060705 39.57862038 26.18371904
W 1.71521908 41.20815913 27.62679419
W 49.46392104 39.89880987 29.49660517
W 1.65715701 41.26957810 30.78021731
W 48.91530853 39.40562313 32.87724262
W 1.67082519 41.37173899 34.31456374
W 49.43697741 39.70788990 35.96388613
W 1.56567227 41.16699022 37.33587802
W 49.13379414 39.73861314 38.98052076
W 1.35719746 41.29592929 40.48907610
W 49.07008966 40.17102247 42.77143584
W 1.23960122 41.53198320 43.78561651
W 49.13718493 39.68128328 45.59900524
W 1.13963519 41.32321881 47.04143532
W 45.91162542 43.13280688 48.44598933
W 31.70591470 41.38922660 74.99751190
W 27.77765360 20.96614288 65.65130428
W 26.81075541 25.25530769 53.03943157
W 34.17086172 31.46896678 69.07068202
W 33.30511329 18.92873966 55.94787833
W 31.02388127 34.75775390 50.33055123
W 45.79769977 43.46499234 58.10398024
W 3.38417801 30.53736557 72.98146252
W 20.92483717 15.18638127 93.94026332
W 16.57666277 17.12500361 63.29341403
W 18.45064556 30.10818263 82.83197480
W 5.86516841 42.78743268 58.59392837
W 45.85885157 16.46160689 95.93536045
W 9.36335659 46.33899668 48.76402453
W 43.28220404 4.40032846 53.88401073
W 30.86344724 41.29479708 90.85432315
W 12.37467069 7.12262811 85.24826660
W 9.32572099 39.86001838 92.68975251
W 20.02648383 4.86801749 80.38629665
W 10.77963889 15.26047034 50.11454144
W 29.00952972 45.91556144 96.14118198
W 30.77387660 13.09069858 76.73114079
W 24.92066224 36.09444227 57.08365147
W 29.30180390 33.45724997 51.82410270
W 25.76367792 10.81172041 78.47439692
W 18.55044458 32.97781828 77.93591999
W 11.31712386 2.45470892 79.03726774
W 42.08451781 33.55063187 89.29573891
W 2.96465227 39.54552075 95.90823225
W 49.29362649 42.91625605 1.19194667
W 1.36219648 45.02468151 2.21985587
W 48.87829030 42.94636721 4.22249996
W 1.25109565 44.71964041 5.40272441
W 49.17552065 42.87305226 7.13628738
W 1.48684113 44.73279674 8.53818015
W 49.26740845 42.61018587 10.16194511
W 1.15871056 44.47508790 11.93680504
W 49.30356480 42.70320780 13.50856877
W 1.16862246 44.69321254 14.94797147
W 48.63013496 42.90940975 16.56960024
W 1.45058637 45.14315684 18.15818560